
     Program PWSCF v.6.6 starts on  3Dec2023 at 14: 9:53 

     This program is part of the open-source Quantum ESPRESSO suite
     for quantum simulation of materials; please cite
         "P. Giannozzi et al., J. Phys.:Condens. Matter 21 395502 (2009);
         "P. Giannozzi et al., J. Phys.:Condens. Matter 29 465901 (2017);
          URL http://www.quantum-espresso.org", 
     in publications or presentations arising from this work. More details at
     http://www.quantum-espresso.org/quote

     Parallel version (MPI), running on     1 processors

     MPI processes distributed on     1 nodes
     Fft bands division:     nmany     =       1
     Waiting for input...
     Reading input from standard input
     Message from routine read_cards :
     DEPRECATED: no units specified in ATOMIC_POSITIONS card
     Message from routine read_cards :
     ATOMIC_POSITIONS: units set to alat

     Current dimensions of program PWSCF are:
     Max number of different atomic species (ntypx) = 10
     Max number of k-points (npk) =  40000
     Max angular momentum in pseudopotentials (lmaxx) =  3

     Atomic positions and unit cell read from directory:
     /Users/virgrammid/Desktop/Lab/si/tmp/si.save/


     Subspace diagonalization in iterative solution of the eigenvalue problem:
     a serial algorithm will be used


     G-vector sticks info
     --------------------
     sticks:   dense  smooth     PW     G-vecs:    dense   smooth      PW
     Sum         439     439    139                 6183     6183    1067



     bravais-lattice index     =            2
     lattice parameter (alat)  =      10.3270  a.u.
     unit-cell volume          =     275.3357 (a.u.)^3
     number of atoms/cell      =            2
     number of atomic types    =            1
     number of electrons       =         8.00
     number of Kohn-Sham states=            8
     kinetic-energy cutoff     =      30.0000  Ry
     charge density cutoff     =     120.0000  Ry
     Exchange-correlation=  SLA  PW   PBX  PBC
                           (   1   4   3   4   0   0   0)

     celldm(1)=  10.327000  celldm(2)=   0.000000  celldm(3)=   0.000000
     celldm(4)=   0.000000  celldm(5)=   0.000000  celldm(6)=   0.000000

     crystal axes: (cart. coord. in units of alat)
               a(1) = (  -0.500000   0.000000   0.500000 )  
               a(2) = (   0.000000   0.500000   0.500000 )  
               a(3) = (  -0.500000   0.500000   0.000000 )  

     reciprocal axes: (cart. coord. in units 2 pi/alat)
               b(1) = ( -1.000000 -1.000000  1.000000 )  
               b(2) = (  1.000000  1.000000  1.000000 )  
               b(3) = ( -1.000000  1.000000 -1.000000 )  


     PseudoPot. # 1 for Si read from file:
     /Users/virgrammid/Desktop/Lab/si/pseudo/Si.rel-pbe-rrkj.UPF
     MD5 check sum: ca11b4d55ae68281b492616f935c6016
     Pseudo is Norm-conserving, Zval =  4.0
     Generated by new atomic code, or converted to UPF format
     Using radial grid of 1141 points,  2 beta functions with: 
                l(1) =   0
                l(2) =   1

     atomic species   valence    mass     pseudopotential
        Si             4.00    28.08600     Si( 1.00)

     48 Sym. Ops., with inversion, found (24 have fractional translation)



   Cartesian axes

     site n.     atom                  positions (alat units)
         1           Si  tau(   1) = (   0.0000000   0.0000000   0.0000000  )
         2           Si  tau(   2) = (   0.2500000   0.2500000   0.2500000  )

     number of k points=   201

     Number of k-points >= 100: set verbosity='high' to print them.

     Dense  grid:     6183 G-vectors     FFT dimensions: (  32,  32,  32)

     Estimated max dynamical RAM per process >       3.61 MB

     The potential is recalculated from file :
     /Users/virgrammid/Desktop/Lab/si/tmp/si.save/charge-density

     Starting wfcs are    8 randomized atomic wfcs

     Band Structure Calculation
     Davidson diagonalization with overlap

     ethr =  1.25E-08,  avg # of iterations = 16.4

     total cpu time spent up to now is      756.0 secs

     End of band structure calculation

     Number of k-points >= 100: set verbosity='high' to print the bands.

     Writing output data file /Users/virgrammid/Desktop/Lab/si/tmp/si.save/

     init_run     :      0.05s CPU      0.07s WALL (       1 calls)
     electrons    :   2817.90s CPU    754.73s WALL (       1 calls)

     Called by init_run:
     wfcinit      :      0.00s CPU      0.00s WALL (       1 calls)
     potinit      :      0.01s CPU      0.01s WALL (       1 calls)
     hinit0       :      0.03s CPU      0.04s WALL (       1 calls)

     Called by electrons:
     c_bands      :   2817.89s CPU    754.73s WALL (       1 calls)
     v_of_rho     :      0.01s CPU      0.01s WALL (       1 calls)

     Called by c_bands:
     init_us_2    :      0.12s CPU      0.04s WALL (     201 calls)
     cegterg      :   2692.69s CPU    720.79s WALL (     231 calls)

     Called by *egterg:
     cdiaghg      :      3.33s CPU      0.91s WALL (    3507 calls)
     h_psi        :    749.83s CPU    201.68s WALL (    3738 calls)
     g_psi        :      0.85s CPU      0.23s WALL (    3306 calls)

     Called by h_psi:
     h_psi:calbec :    443.61s CPU    120.93s WALL (    3738 calls)
     vloc_psi     :     72.70s CPU     20.28s WALL (    3738 calls)
     add_vuspsi   :    233.02s CPU     60.35s WALL (    3738 calls)

     General routines
     calbec       :    443.53s CPU    120.91s WALL (    3738 calls)
     fft          :      0.00s CPU      0.00s WALL (      10 calls)
     fftw         :     60.98s CPU     16.98s WALL (   42422 calls)
     davcio       :      0.42s CPU      0.10s WALL (     402 calls)

     Parallel routines

     PWSCF        :  47m 0.17s CPU  12m36.17s WALL


   This run was terminated on:  14:22:30   3Dec2023            

=------------------------------------------------------------------------------=
   JOB DONE.
=------------------------------------------------------------------------------=
