
     Program BANDS v.6.6 starts on  3Dec2023 at 14:38:47 

     This program is part of the open-source Quantum ESPRESSO suite
     for quantum simulation of materials; please cite
         "P. Giannozzi et al., J. Phys.:Condens. Matter 21 395502 (2009);
         "P. Giannozzi et al., J. Phys.:Condens. Matter 29 465901 (2017);
          URL http://www.quantum-espresso.org", 
     in publications or presentations arising from this work. More details at
     http://www.quantum-espresso.org/quote

     Parallel version (MPI), running on     1 processors

     MPI processes distributed on     1 nodes
     Fft bands division:     nmany     =       1

     Reading xml data from directory:

     /Users/virgrammid/Desktop/Lab/si/tmp/si.save/

     IMPORTANT: XC functional enforced from input :
     Exchange-correlation= PBE
                           (   1   4   3   4   0   0   0)
     Any further DFT definition will be discarded
     Please, verify this is what you really want


     G-vector sticks info
     --------------------
     sticks:   dense  smooth     PW     G-vecs:    dense   smooth      PW
     Sum         439     439    139                 6183     6183    1067

     Reading collected, re-writing distributed wavefunctions
     high-symmetry point: -0.5000 0.5000 0.5000   x coordinate   0.0000
     high-symmetry point:  0.0000 0.0000 0.0000   x coordinate   0.8660
     high-symmetry point: -1.0000 0.0000 0.0000   x coordinate   1.8660
     high-symmetry point: -1.0000 0.5000 0.0000   x coordinate   2.3660
     high-symmetry point:  0.0000 0.0000 0.0000   x coordinate   3.4841

     Plottable bands (eV) written to file bands.dat.gnu
     Bands written to file bands.dat

 **************************************************************************

                    xk=(  -0.50000,   0.50000,   0.50000  )

     zone border point and non-symmorphic group 
     symmetry decomposition not available

 **************************************************************************

 **************************************************************************

                    xk=(  -0.49000,   0.49000,   0.49000  )

     point group C_3v (3m)  
     there are  3 classes
     the character table:

       E     2C3   3s_v 
A_1    1.00  1.00  1.00
A_2    1.00  1.00 -1.00
E      2.00 -1.00  0.00

     the symmetry operations in each class and the name of the first element:

     E        1
                                                                 
     2C3      2    3
                                                                 
     3s_v     4    5    6
                                                                 

     Band symmetry, C_3v (3m)   point group:

     e(  1 -  1) =     -3.51760  eV     1   --> A_1  L_1       
     e(  2 -  2) =     -0.83360  eV     1   --> A_1  L_1       
     e(  3 -  4) =      4.85668  eV     2   --> E    L_3       
     e(  5 -  5) =      7.49283  eV     1   --> A_1  L_1       
     e(  6 -  7) =      9.39570  eV     2   --> E    L_3       
     e(  8 -  8) =     13.74976  eV     1   --> A_1  L_1       

 **************************************************************************

 **************************************************************************

                    xk=(  -0.48000,   0.48000,   0.48000  )

     Band symmetry, C_3v (3m)   point group:

     e(  1 -  1) =     -3.53409  eV     1   --> A_1  L_1       
     e(  2 -  2) =     -0.80976  eV     1   --> A_1  L_1       
     e(  3 -  4) =      4.85881  eV     2   --> E    L_3       
     e(  5 -  5) =      7.49532  eV     1   --> A_1  L_1       
     e(  6 -  7) =      9.39806  eV     2   --> E    L_3       
     e(  8 -  8) =     13.75342  eV     1   --> A_1  L_1       

 **************************************************************************

 **************************************************************************

                    xk=(  -0.47000,   0.47000,   0.47000  )

     Band symmetry, C_3v (3m)   point group:

     e(  1 -  1) =     -3.56096  eV     1   --> A_1  L_1       
     e(  2 -  2) =     -0.77070  eV     1   --> A_1  L_1       
     e(  3 -  4) =      4.86237  eV     2   --> E    L_3       
     e(  5 -  5) =      7.49946  eV     1   --> A_1  L_1       
     e(  6 -  7) =      9.40197  eV     2   --> E    L_3       
     e(  8 -  8) =     13.75944  eV     1   --> A_1  L_1       

 **************************************************************************

 **************************************************************************

                    xk=(  -0.46000,   0.46000,   0.46000  )

     Band symmetry, C_3v (3m)   point group:

     e(  1 -  1) =     -3.59730  eV     1   --> A_1  L_1       
     e(  2 -  2) =     -0.71732  eV     1   --> A_1  L_1       
     e(  3 -  4) =      4.86735  eV     2   --> E    L_3       
     e(  5 -  5) =      7.50524  eV     1   --> A_1  L_1       
     e(  6 -  7) =      9.40737  eV     2   --> E    L_3       
     e(  8 -  8) =     13.76773  eV     1   --> A_1  L_1       

 **************************************************************************

 **************************************************************************

                    xk=(  -0.45000,   0.45000,   0.45000  )

     Band symmetry, C_3v (3m)   point group:

     e(  1 -  1) =     -3.64202  eV     1   --> A_1  L_1       
     e(  2 -  2) =     -0.65070  eV     1   --> A_1  L_1       
     e(  3 -  4) =      4.87375  eV     2   --> E    L_3       
     e(  5 -  5) =      7.51267  eV     1   --> A_1  L_1       
     e(  6 -  7) =      9.41420  eV     2   --> E    L_3       
     e(  8 -  8) =     13.77814  eV     1   --> A_1  L_1       

 **************************************************************************

 **************************************************************************

                    xk=(  -0.44000,   0.44000,   0.44000  )

     Band symmetry, C_3v (3m)   point group:

     e(  1 -  1) =     -3.69394  eV     1   --> A_1  L_1       
     e(  2 -  2) =     -0.57205  eV     1   --> A_1  L_1       
     e(  3 -  4) =      4.88157  eV     2   --> E    L_3       
     e(  5 -  5) =      7.52173  eV     1   --> A_1  L_1       
     e(  6 -  7) =      9.42236  eV     2   --> E    L_3       
     e(  8 -  8) =     13.79047  eV     1   --> A_1  L_1       

 **************************************************************************

 **************************************************************************

                    xk=(  -0.43000,   0.43000,   0.43000  )

     Band symmetry, C_3v (3m)   point group:

     e(  1 -  1) =     -3.75187  eV     1   --> A_1  L_1       
     e(  2 -  2) =     -0.48254  eV     1   --> A_1  L_1       
     e(  3 -  4) =      4.89081  eV     2   --> E    L_3       
     e(  5 -  5) =      7.53244  eV     1   --> A_1  L_1       
     e(  6 -  7) =      9.43176  eV     2   --> E    L_3       
     e(  8 -  8) =     13.80442  eV     1   --> A_1  L_1       

 **************************************************************************

 **************************************************************************

                    xk=(  -0.42000,   0.42000,   0.42000  )

     Band symmetry, C_3v (3m)   point group:

     e(  1 -  1) =     -3.81470  eV     1   --> A_1  L_1       
     e(  2 -  2) =     -0.38330  eV     1   --> A_1  L_1       
     e(  3 -  4) =      4.90147  eV     2   --> E    L_3       
     e(  5 -  5) =      7.54477  eV     1   --> A_1  L_1       
     e(  6 -  7) =      9.44226  eV     2   --> E    L_3       
     e(  8 -  8) =     13.81961  eV     1   --> A_1  L_1       

 **************************************************************************

 **************************************************************************

                    xk=(  -0.41000,   0.41000,   0.41000  )

     Band symmetry, C_3v (3m)   point group:

     e(  1 -  1) =     -3.88140  eV     1   --> A_1  L_1       
     e(  2 -  2) =     -0.27537  eV     1   --> A_1  L_1       
     e(  3 -  4) =      4.91353  eV     2   --> E    L_3       
     e(  5 -  5) =      7.55873  eV     1   --> A_1  L_1       
     e(  6 -  7) =      9.45371  eV     2   --> E    L_3       
     e(  8 -  8) =     13.83548  eV     1   --> A_1  L_1       

 **************************************************************************

 **************************************************************************

                    xk=(  -0.40000,   0.40000,   0.40000  )

     Band symmetry, C_3v (3m)   point group:

     e(  1 -  1) =     -3.95106  eV     1   --> A_1  L_1       
     e(  2 -  2) =     -0.15967  eV     1   --> A_1  L_1       
     e(  3 -  4) =      4.92701  eV     2   --> E    L_3       
     e(  5 -  5) =      7.57432  eV     1   --> A_1  L_1       
     e(  6 -  7) =      9.46592  eV     2   --> E    L_3       
     e(  8 -  8) =     13.85129  eV     1   --> A_1  L_1       

 **************************************************************************

 **************************************************************************

                    xk=(  -0.39000,   0.39000,   0.39000  )

     Band symmetry, C_3v (3m)   point group:

     e(  1 -  1) =     -4.02292  eV     1   --> A_1  L_1       
     e(  2 -  2) =     -0.03702  eV     1   --> A_1  L_1       
     e(  3 -  4) =      4.94188  eV     2   --> E    L_3       
     e(  5 -  5) =      7.59148  eV     1   --> A_1  L_1       
     e(  6 -  7) =      9.47868  eV     2   --> E    L_3       
     e(  8 -  8) =     13.86599  eV     1   --> A_1  L_1       

 **************************************************************************

 **************************************************************************

                    xk=(  -0.38000,   0.38000,   0.38000  )

     Band symmetry, C_3v (3m)   point group:

     e(  1 -  1) =     -4.09628  eV     1   --> A_1  L_1       
     e(  2 -  2) =      0.09189  eV     1   --> A_1  L_1       
     e(  3 -  4) =      4.95815  eV     2   --> E    L_3       
     e(  5 -  5) =      7.61021  eV     1   --> A_1  L_1       
     e(  6 -  7) =      9.49176  eV     2   --> E    L_3       
     e(  8 -  8) =     13.87812  eV     1   --> A_1  L_1       

 **************************************************************************

 **************************************************************************

                    xk=(  -0.37000,   0.37000,   0.37000  )

     Band symmetry, C_3v (3m)   point group:

     e(  1 -  1) =     -4.17056  eV     1   --> A_1  L_1       
     e(  2 -  2) =      0.22645  eV     1   --> A_1  L_1       
     e(  3 -  4) =      4.97581  eV     2   --> E    L_3       
     e(  5 -  5) =      7.63051  eV     1   --> A_1  L_1       
     e(  6 -  7) =      9.50490  eV     2   --> E    L_3       
     e(  8 -  8) =     13.88562  eV     1   --> A_1  L_1       

 **************************************************************************

 **************************************************************************

                    xk=(  -0.36000,   0.36000,   0.36000  )

     Band symmetry, C_3v (3m)   point group:

     e(  1 -  1) =     -4.24530  eV     1   --> A_1  L_1       
     e(  2 -  2) =      0.36615  eV     1   --> A_1  L_1       
     e(  3 -  4) =      4.99485  eV     2   --> E    L_3       
     e(  5 -  5) =      7.65235  eV     1   --> A_1  L_1       
     e(  6 -  7) =      9.51779  eV     2   --> E    L_3       
     e(  8 -  8) =     13.88560  eV     1   --> A_1  L_1       

 **************************************************************************

 **************************************************************************

                    xk=(  -0.35000,   0.35000,   0.35000  )

     Band symmetry, C_3v (3m)   point group:

     e(  1 -  1) =     -4.32003  eV     1   --> A_1  L_1       
     e(  2 -  2) =      0.51054  eV     1   --> A_1  L_1       
     e(  3 -  4) =      5.01526  eV     2   --> E    L_3       
     e(  5 -  5) =      7.67572  eV     1   --> A_1  L_1       
     e(  6 -  7) =      9.53011  eV     2   --> E    L_3       
     e(  8 -  8) =     13.87422  eV     1   --> A_1  L_1       

 **************************************************************************

 **************************************************************************

                    xk=(  -0.34000,   0.34000,   0.34000  )

     Band symmetry, C_3v (3m)   point group:

     e(  1 -  1) =     -4.39441  eV     1   --> A_1  L_1       
     e(  2 -  2) =      0.65923  eV     1   --> A_1  L_1       
     e(  3 -  4) =      5.03702  eV     2   --> E    L_3       
     e(  5 -  5) =      7.70058  eV     1   --> A_1  L_1       
     e(  6 -  7) =      9.54150  eV     2   --> E    L_3       
     e(  8 -  8) =     13.84684  eV     1   --> A_1  L_1       

 **************************************************************************

 **************************************************************************

                    xk=(  -0.33000,   0.33000,   0.33000  )

     Band symmetry, C_3v (3m)   point group:

     e(  1 -  1) =     -4.46815  eV     1   --> A_1  L_1       
     e(  2 -  2) =      0.81187  eV     1   --> A_1  L_1       
     e(  3 -  4) =      5.06012  eV     2   --> E    L_3       
     e(  5 -  5) =      7.72690  eV     1   --> A_1  L_1       
     e(  6 -  7) =      9.55158  eV     2   --> E    L_3       
     e(  8 -  8) =     13.79884  eV     1   --> A_1  L_1       

 **************************************************************************

 **************************************************************************

                    xk=(  -0.32000,   0.32000,   0.32000  )

     Band symmetry, C_3v (3m)   point group:

     e(  1 -  1) =     -4.54099  eV     1   --> A_1  L_1       
     e(  2 -  2) =      0.96818  eV     1   --> A_1  L_1       
     e(  3 -  4) =      5.08454  eV     2   --> E    L_3       
     e(  5 -  5) =      7.75465  eV     1   --> A_1  L_1       
     e(  6 -  7) =      9.55992  eV     2   --> E    L_3       
     e(  8 -  8) =     13.72716  eV     1   --> A_1  L_1       

 **************************************************************************

 **************************************************************************

                    xk=(  -0.31000,   0.31000,   0.31000  )

     Band symmetry, C_3v (3m)   point group:

     e(  1 -  1) =     -4.61271  eV     1   --> A_1  L_1       
     e(  2 -  2) =      1.12789  eV     1   --> A_1  L_1       
     e(  3 -  4) =      5.11026  eV     2   --> E    L_3       
     e(  5 -  5) =      7.78380  eV     1   --> A_1  L_1       
     e(  6 -  7) =      9.56611  eV     2   --> E    L_3       
     e(  8 -  8) =     13.63172  eV     1   --> A_1  L_1       

 **************************************************************************

 **************************************************************************

                    xk=(  -0.30000,   0.30000,   0.30000  )

     Band symmetry, C_3v (3m)   point group:

     e(  1 -  1) =     -4.68312  eV     1   --> A_1  L_1       
     e(  2 -  2) =      1.29076  eV     1   --> A_1  L_1       
     e(  3 -  4) =      5.13725  eV     2   --> E    L_3       
     e(  5 -  5) =      7.81430  eV     1   --> A_1  L_1       
     e(  6 -  7) =      9.56971  eV     2   --> E    L_3       
     e(  8 -  8) =     13.51529  eV     1   --> A_1  L_1       

 **************************************************************************

 **************************************************************************

                    xk=(  -0.29000,   0.29000,   0.29000  )

     Band symmetry, C_3v (3m)   point group:

     e(  1 -  1) =     -4.75205  eV     1   --> A_1  L_1       
     e(  2 -  2) =      1.45657  eV     1   --> A_1  L_1       
     e(  3 -  4) =      5.16549  eV     2   --> E    L_3       
     e(  5 -  5) =      7.84609  eV     1   --> A_1  L_1       
     e(  6 -  7) =      9.57026  eV     2   --> E    L_3       
     e(  8 -  8) =     13.38205  eV     1   --> A_1  L_1       

 **************************************************************************

 **************************************************************************

                    xk=(  -0.28000,   0.28000,   0.28000  )

     Band symmetry, C_3v (3m)   point group:

     e(  1 -  1) =     -4.81938  eV     1   --> A_1  L_1       
     e(  2 -  2) =      1.62513  eV     1   --> A_1  L_1       
     e(  3 -  4) =      5.19494  eV     2   --> E    L_3       
     e(  5 -  5) =      7.87913  eV     1   --> A_1  L_1       
     e(  6 -  7) =      9.56736  eV     2   --> E    L_3       
     e(  8 -  8) =     13.23615  eV     1   --> A_1  L_1       

 **************************************************************************

 **************************************************************************

                    xk=(  -0.27000,   0.27000,   0.27000  )

     Band symmetry, C_3v (3m)   point group:

     e(  1 -  1) =     -4.88498  eV     1   --> A_1  L_1       
     e(  2 -  2) =      1.79624  eV     1   --> A_1  L_1       
     e(  3 -  4) =      5.22555  eV     2   --> E    L_3       
     e(  5 -  5) =      7.91336  eV     1   --> A_1  L_1       
     e(  6 -  7) =      9.56060  eV     2   --> E    L_3       
     e(  8 -  8) =     13.08099  eV     1   --> A_1  L_1       

 **************************************************************************

 **************************************************************************

                    xk=(  -0.26000,   0.26000,   0.26000  )

     Band symmetry, C_3v (3m)   point group:

     e(  1 -  1) =     -4.94875  eV     1   --> A_1  L_1       
     e(  2 -  2) =      1.96973  eV     1   --> A_1  L_1       
     e(  3 -  4) =      5.25730  eV     2   --> E    L_3       
     e(  5 -  5) =      7.94869  eV     1   --> A_1  L_1       
     e(  6 -  7) =      9.54966  eV     2   --> E    L_3       
     e(  8 -  8) =     12.91905  eV     1   --> A_1  L_1       

 **************************************************************************

 **************************************************************************

                    xk=(  -0.25000,   0.25000,   0.25000  )

     Band symmetry, C_3v (3m)   point group:

     e(  1 -  1) =     -5.01058  eV     1   --> A_1  L_1       
     e(  2 -  2) =      2.14541  eV     1   --> A_1  L_1       
     e(  3 -  4) =      5.29011  eV     2   --> E    L_3       
     e(  5 -  5) =      7.98505  eV     1   --> A_1  L_1       
     e(  6 -  7) =      9.53426  eV     2   --> E    L_3       
     e(  8 -  8) =     12.75216  eV     1   --> A_1  L_1       

 **************************************************************************

 **************************************************************************

                    xk=(  -0.24000,   0.24000,   0.24000  )

     Band symmetry, C_3v (3m)   point group:

     e(  1 -  1) =     -5.07041  eV     1   --> A_1  L_1       
     e(  2 -  2) =      2.32310  eV     1   --> A_1  L_1       
     e(  3 -  4) =      5.32394  eV     2   --> E    L_3       
     e(  5 -  5) =      8.02234  eV     1   --> A_1  L_1       
     e(  6 -  7) =      9.51423  eV     2   --> E    L_3       
     e(  8 -  8) =     12.58157  eV     1   --> A_1  L_1       

 **************************************************************************

 **************************************************************************

                    xk=(  -0.23000,   0.23000,   0.23000  )

     Band symmetry, C_3v (3m)   point group:

     e(  1 -  1) =     -5.12815  eV     1   --> A_1  L_1       
     e(  2 -  2) =      2.50265  eV     1   --> A_1  L_1       
     e(  3 -  4) =      5.35872  eV     2   --> E    L_3       
     e(  5 -  5) =      8.06048  eV     1   --> A_1  L_1       
     e(  6 -  7) =      9.48949  eV     2   --> E    L_3       
     e(  8 -  8) =     12.40820  eV     1   --> A_1  L_1       

 **************************************************************************

 **************************************************************************

                    xk=(  -0.22000,   0.22000,   0.22000  )

     Band symmetry, C_3v (3m)   point group:

     e(  1 -  1) =     -5.18375  eV     1   --> A_1  L_1       
     e(  2 -  2) =      2.68385  eV     1   --> A_1  L_1       
     e(  3 -  4) =      5.39436  eV     2   --> E    L_3       
     e(  5 -  5) =      8.09934  eV     1   --> A_1  L_1       
     e(  6 -  7) =      9.46008  eV     2   --> E    L_3       
     e(  8 -  8) =     12.23267  eV     1   --> A_1  L_1       

 **************************************************************************

 **************************************************************************

                    xk=(  -0.21000,   0.21000,   0.21000  )

     Band symmetry, C_3v (3m)   point group:

     e(  1 -  1) =     -5.23716  eV     1   --> A_1  L_1       
     e(  2 -  2) =      2.86652  eV     1   --> A_1  L_1       
     e(  3 -  4) =      5.43079  eV     2   --> E    L_3       
     e(  5 -  5) =      8.13879  eV     1   --> A_1  L_1       
     e(  6 -  7) =      9.42616  eV     2   --> E    L_3       
     e(  8 -  8) =     12.05552  eV     1   --> A_1  L_1       

 **************************************************************************

 **************************************************************************

                    xk=(  -0.20000,   0.20000,   0.20000  )

     Band symmetry, C_3v (3m)   point group:

     e(  1 -  1) =     -5.28830  eV     1   --> A_1  L_1       
     e(  2 -  2) =      3.05045  eV     1   --> A_1  L_1       
     e(  3 -  4) =      5.46789  eV     2   --> E    L_3       
     e(  5 -  5) =      8.17871  eV     1   --> A_1  L_1       
     e(  6 -  7) =      9.38799  eV     2   --> E    L_3       
     e(  8 -  8) =     11.87710  eV     1   --> A_1  L_1       

 **************************************************************************

 **************************************************************************

                    xk=(  -0.19000,   0.19000,   0.19000  )

     Band symmetry, C_3v (3m)   point group:

     e(  1 -  1) =     -5.33718  eV     1   --> A_1  L_1       
     e(  2 -  2) =      3.23543  eV     1   --> A_1  L_1       
     e(  3 -  4) =      5.50555  eV     2   --> E    L_3       
     e(  5 -  5) =      8.21889  eV     1   --> A_1  L_1       
     e(  6 -  7) =      9.34594  eV     2   --> E    L_3       
     e(  8 -  8) =     11.69775  eV     1   --> A_1  L_1       

 **************************************************************************

 **************************************************************************

                    xk=(  -0.18000,   0.18000,   0.18000  )

     Band symmetry, C_3v (3m)   point group:

     e(  1 -  1) =     -5.38372  eV     1   --> A_1  L_1       
     e(  2 -  2) =      3.42120  eV     1   --> A_1  L_1       
     e(  3 -  4) =      5.54365  eV     2   --> E    L_3       
     e(  5 -  5) =      8.25918  eV     1   --> A_1  L_1       
     e(  6 -  7) =      9.30047  eV     2   --> E    L_3       
     e(  8 -  8) =     11.51777  eV     1   --> A_1  L_1       

 **************************************************************************

 **************************************************************************

                    xk=(  -0.17000,   0.17000,   0.17000  )

     Band symmetry, C_3v (3m)   point group:

     e(  1 -  1) =     -5.42791  eV     1   --> A_1  L_1       
     e(  2 -  2) =      3.60749  eV     1   --> A_1  L_1       
     e(  3 -  4) =      5.58204  eV     2   --> E    L_3       
     e(  5 -  5) =      8.29934  eV     1   --> A_1  L_1       
     e(  6 -  7) =      9.25211  eV     2   --> E    L_3       
     e(  8 -  8) =     11.33743  eV     1   --> A_1  L_1       

 **************************************************************************

 **************************************************************************

                    xk=(  -0.16000,   0.16000,   0.16000  )

     Band symmetry, C_3v (3m)   point group:

     e(  1 -  1) =     -5.46970  eV     1   --> A_1  L_1       
     e(  2 -  2) =      3.79399  eV     1   --> A_1  L_1       
     e(  3 -  4) =      5.62055  eV     2   --> E    L_3       
     e(  5 -  5) =      8.33918  eV     1   --> A_1  L_1       
     e(  6 -  7) =      9.20145  eV     2   --> E    L_3       
     e(  8 -  8) =     11.15710  eV     1   --> A_1  L_1       

 **************************************************************************

 **************************************************************************

                    xk=(  -0.15000,   0.15000,   0.15000  )

     Band symmetry, C_3v (3m)   point group:

     e(  1 -  1) =     -5.50907  eV     1   --> A_1  L_1       
     e(  2 -  2) =      3.98034  eV     1   --> A_1  L_1       
     e(  3 -  4) =      5.65900  eV     2   --> E    L_3       
     e(  5 -  5) =      8.37843  eV     1   --> A_1  L_1       
     e(  6 -  7) =      9.14911  eV     2   --> E    L_3       
     e(  8 -  8) =     10.97712  eV     1   --> A_1  L_1       

 **************************************************************************

 **************************************************************************

                    xk=(  -0.14000,   0.14000,   0.14000  )

     Band symmetry, C_3v (3m)   point group:

     e(  1 -  1) =     -5.54600  eV     1   --> A_1  L_1       
     e(  2 -  2) =      4.16611  eV     1   --> A_1  L_1       
     e(  3 -  4) =      5.69717  eV     2   --> E    L_3       
     e(  5 -  5) =      8.41675  eV     1   --> A_1  L_1       
     e(  6 -  7) =      9.09574  eV     2   --> E    L_3       
     e(  8 -  8) =     10.79793  eV     1   --> A_1  L_1       

 **************************************************************************

 **************************************************************************

                    xk=(  -0.13000,   0.13000,   0.13000  )

     Band symmetry, C_3v (3m)   point group:

     e(  1 -  1) =     -5.58046  eV     1   --> A_1  L_1       
     e(  2 -  2) =      4.35079  eV     1   --> A_1  L_1       
     e(  3 -  4) =      5.73484  eV     2   --> E    L_3       
     e(  5 -  5) =      8.45382  eV     1   --> A_1  L_1       
     e(  6 -  7) =      9.04201  eV     2   --> E    L_3       
     e(  8 -  8) =     10.62006  eV     1   --> A_1  L_1       

 **************************************************************************

 **************************************************************************

                    xk=(  -0.12000,   0.12000,   0.12000  )

     Band symmetry, C_3v (3m)   point group:

     e(  1 -  1) =     -5.61247  eV     1   --> A_1  L_1       
     e(  2 -  2) =      4.53378  eV     1   --> A_1  L_1       
     e(  3 -  4) =      5.77174  eV     2   --> E    L_3       
     e(  5 -  5) =      8.48925  eV     1   --> A_1  L_1       
     e(  6 -  7) =      8.98859  eV     2   --> E    L_3       
     e(  8 -  8) =     10.44421  eV     1   --> A_1  L_1       

 **************************************************************************

 **************************************************************************

                    xk=(  -0.11000,   0.11000,   0.11000  )

     Band symmetry, C_3v (3m)   point group:

     e(  1 -  1) =     -5.64192  eV     1   --> A_1  L_1       
     e(  2 -  2) =      4.71435  eV     1   --> A_1  L_1       
     e(  3 -  4) =      5.80761  eV     2   --> E    L_3       
     e(  5 -  5) =      8.52262  eV     1   --> A_1  L_1       
     e(  6 -  7) =      8.93615  eV     2   --> E    L_3       
     e(  8 -  8) =     10.27124  eV     1   --> A_1  L_1       

 **************************************************************************

 **************************************************************************

                    xk=(  -0.10000,   0.10000,   0.10000  )

     Band symmetry, C_3v (3m)   point group:

     e(  1 -  1) =     -5.66888  eV     1   --> A_1  L_1       
     e(  2 -  2) =      4.89159  eV     1   --> A_1  L_1       
     e(  3 -  4) =      5.84211  eV     2   --> E    L_3       
     e(  5 -  5) =      8.55333  eV     1   --> A_1  L_1       
     e(  6 -  7) =      8.88537  eV     2   --> E    L_3       
     e(  8 -  8) =     10.10226  eV     1   --> A_1  L_1       

 **************************************************************************

 **************************************************************************

                    xk=(  -0.09000,   0.09000,   0.09000  )

     Band symmetry, C_3v (3m)   point group:

     e(  1 -  1) =     -5.69331  eV     1   --> A_1  L_1       
     e(  2 -  2) =      5.06436  eV     1   --> A_1  L_1       
     e(  3 -  4) =      5.87494  eV     2   --> E    L_3       
     e(  5 -  5) =      8.58074  eV     1   --> A_1  L_1       
     e(  6 -  7) =      8.83689  eV     2   --> E    L_3       
     e(  8 -  8) =      9.93868  eV     1   --> A_1  L_1       

 **************************************************************************

 **************************************************************************

                    xk=(  -0.08000,   0.08000,   0.08000  )

     Band symmetry, C_3v (3m)   point group:

     e(  1 -  1) =     -5.71520  eV     1   --> A_1  L_1       
     e(  2 -  2) =      5.23123  eV     1   --> A_1  L_1       
     e(  3 -  4) =      5.90572  eV     2   --> E    L_3       
     e(  5 -  5) =      8.60409  eV     1   --> A_1  L_1       
     e(  6 -  7) =      8.79135  eV     2   --> E    L_3       
     e(  8 -  8) =      9.78237  eV     1   --> A_1  L_1       

 **************************************************************************

 **************************************************************************

                    xk=(  -0.07000,   0.07000,   0.07000  )

     Band symmetry, C_3v (3m)   point group:

     e(  1 -  1) =     -5.73454  eV     1   --> A_1  L_1       
     e(  2 -  2) =      5.39041  eV     1   --> A_1  L_1       
     e(  3 -  4) =      5.93409  eV     2   --> E    L_3       
     e(  5 -  5) =      8.62244  eV     1   --> A_1  L_1       
     e(  6 -  7) =      8.74939  eV     2   --> E    L_3       
     e(  8 -  8) =      9.63573  eV     1   --> A_1  L_1       

 **************************************************************************

 **************************************************************************

                    xk=(  -0.06000,   0.06000,   0.06000  )

     Band symmetry, C_3v (3m)   point group:

     e(  1 -  1) =     -5.75130  eV     1   --> A_1  L_1       
     e(  2 -  2) =      5.53966  eV     1   --> A_1  L_1       
     e(  3 -  4) =      5.95968  eV     2   --> E    L_3       
     e(  5 -  5) =      8.63470  eV     1   --> A_1  L_1       
     e(  6 -  7) =      8.71159  eV     2   --> E    L_3       
     e(  8 -  8) =      9.50179  eV     1   --> A_1  L_1       

 **************************************************************************

 **************************************************************************

                    xk=(  -0.05000,   0.05000,   0.05000  )

     Band symmetry, C_3v (3m)   point group:

     e(  1 -  1) =     -5.76550  eV     1   --> A_1  L_1       
     e(  2 -  2) =      5.67615  eV     1   --> A_1  L_1       
     e(  3 -  4) =      5.98212  eV     2   --> E    L_3       
     e(  5 -  5) =      8.63980  eV     1   --> A_1  L_1       
     e(  6 -  7) =      8.67852  eV     2   --> E    L_3       
     e(  8 -  8) =      9.38411  eV     1   --> A_1  L_1       

 **************************************************************************

 **************************************************************************

                    xk=(  -0.04000,   0.04000,   0.04000  )

     Band symmetry, C_3v (3m)   point group:

     e(  1 -  1) =     -5.77717  eV     1   --> A_1  L_1       
     e(  2 -  2) =      5.79647  eV     1   --> A_1  L_1       
     e(  3 -  4) =      6.00104  eV     2   --> E    L_3       
     e(  5 -  5) =      8.63718  eV     1   --> A_1  L_1       
     e(  6 -  7) =      8.65068  eV     2   --> E    L_3       
     e(  8 -  8) =      9.28638  eV     1   --> A_1  L_1       

 **************************************************************************

 **************************************************************************

                    xk=(  -0.03000,   0.03000,   0.03000  )

     Band symmetry, C_3v (3m)   point group:

     e(  1 -  1) =     -5.78622  eV     1   --> A_1  L_1       
     e(  2 -  2) =      5.89666  eV     1   --> A_1  L_1       
     e(  3 -  4) =      6.01614  eV     2   --> E    L_3       
     e(  5 -  5) =      8.62776  eV     1   --> A_1  L_1       
     e(  6 -  7) =      8.62852  eV     2   --> E    L_3       
     e(  8 -  8) =      9.21142  eV     1   --> A_1  L_1       

 **************************************************************************

 **************************************************************************

                    xk=(  -0.02000,   0.02000,   0.02000  )

     Band symmetry, C_3v (3m)   point group:

     e(  1 -  1) =     -5.79269  eV     1   --> A_1  L_1       
     e(  2 -  2) =      5.97246  eV     1   --> A_1  L_1       
     e(  3 -  4) =      6.02714  eV     2   --> E    L_3       
     e(  5 -  6) =      8.61242  eV     2   --> E    L_3       
     e(  7 -  7) =      8.61486  eV     1   --> A_1  L_1       
     e(  8 -  8) =      9.15997  eV     1   --> A_1  L_1       

 **************************************************************************

 **************************************************************************

                    xk=(  -0.01000,   0.01000,   0.01000  )

     Band symmetry, C_3v (3m)   point group:

     e(  1 -  1) =     -5.79657  eV     1   --> A_1  L_1       
     e(  2 -  2) =      6.01989  eV     1   --> A_1  L_1       
     e(  3 -  4) =      6.03382  eV     2   --> E    L_3       
     e(  5 -  6) =      8.60264  eV     2   --> E    L_3       
     e(  7 -  7) =      8.60374  eV     1   --> A_1  L_1       
     e(  8 -  8) =      9.13057  eV     1   --> A_1  L_1       

 **************************************************************************

 **************************************************************************

                    xk=(   0.00000,   0.00000,   0.00000  )

     point group O_h (m-3m) 
     there are 10 classes
     the character table:

       E     8C3   3C2   6C4   6C2'  i     8S6   3s_h  6S4   6s_d 
A_1g   1.00  1.00  1.00  1.00  1.00  1.00  1.00  1.00  1.00  1.00
A_2g   1.00  1.00  1.00 -1.00 -1.00  1.00  1.00  1.00 -1.00 -1.00
E_g    2.00 -1.00  2.00  0.00  0.00  2.00 -1.00  2.00  0.00  0.00
T_1g   3.00  0.00 -1.00  1.00 -1.00  3.00  0.00 -1.00  1.00 -1.00
T_2g   3.00  0.00 -1.00 -1.00  1.00  3.00  0.00 -1.00 -1.00  1.00
A_1u   1.00  1.00  1.00  1.00  1.00 -1.00 -1.00 -1.00 -1.00 -1.00
A_2u   1.00  1.00  1.00 -1.00 -1.00 -1.00 -1.00 -1.00  1.00  1.00
E_u    2.00 -1.00  2.00  0.00  0.00 -2.00  1.00 -2.00  0.00  0.00
T_1u   3.00  0.00 -1.00  1.00 -1.00 -3.00  0.00  1.00 -1.00  1.00
T_2u   3.00  0.00 -1.00 -1.00  1.00 -3.00  0.00  1.00  1.00 -1.00

     the symmetry operations in each class and the name of the first element:

     E        1
                                                                 
     8C3     17   19   20   18   24   21   22   23
                                                                 
     3C2      2    4    3
                                                                 
     6C4      7    8   15   16   12   11
                                                                 
     6C2'     5    6   14   13   10    9
                                                                 
     i       25
                                                                 
     8S6     41   43   44   42   48   45   46   47
                                                                 
     3s_h    26   28   27
                                                                 
     6S4     31   32   39   40   36   35
                                                                 
     6s_d    29   30   38   37   34   33
                                                                 

     Band symmetry, O_h (m-3m)  point group:

     e(  1 -  1) =     -5.79787  eV     1   --> A_1g G_1   G_1+
     e(  2 -  4) =      6.03607  eV     3   --> T_2g G_25' G_5+
     e(  5 -  7) =      8.59936  eV     3   --> T_1u G_15  G_4-
     e(  8 -  8) =      9.12110  eV     1   --> A_2u G_2'  G_2-

 **************************************************************************

 **************************************************************************

                    xk=(  -0.02000,   0.00000,   0.00000  )

     point group C_4v (4mm) 
     there are  5 classes
     the character table:

       E     2C4   C2    2s_v  2s_d 
A_1    1.00  1.00  1.00  1.00  1.00
A_2    1.00  1.00  1.00 -1.00 -1.00
B_1    1.00 -1.00  1.00  1.00 -1.00
B_2    1.00 -1.00  1.00 -1.00  1.00
E      2.00  0.00 -2.00  0.00  0.00

     the symmetry operations in each class and the name of the first element:

     E        1
                                                                 
     2C4      3    4
                                                                 
     C2       2
                                                                 
     2s_v     5    6
                                                                 
     2s_d     7    8
                                                                 

     Band symmetry, C_4v (4mm)  point group:

     e(  1 -  1) =     -5.79614  eV     1   --> A_1  G_1 D_1   
     e(  2 -  2) =      6.02337  eV     1   --> B_2  G_4 D_2'  
     e(  3 -  4) =      6.02863  eV     2   --> E    G_5 D_5   
     e(  5 -  5) =      8.59504  eV     1   --> A_1  G_1 D_1   
     e(  6 -  7) =      8.60892  eV     2   --> E    G_5 D_5   
     e(  8 -  8) =      9.13355  eV     1   --> B_2  G_4 D_2'  

 **************************************************************************

 **************************************************************************

                    xk=(  -0.04000,   0.00000,   0.00000  )

     Band symmetry, C_4v (4mm)  point group:

     e(  1 -  1) =     -5.79096  eV     1   --> A_1  G_1 D_1   
     e(  2 -  2) =      5.98590  eV     1   --> B_2  G_4 D_2'  
     e(  3 -  4) =      6.00668  eV     2   --> E    G_5 D_5   
     e(  5 -  5) =      8.58215  eV     1   --> A_1  G_1 D_1   
     e(  6 -  7) =      8.63724  eV     2   --> E    G_5 D_5   
     e(  8 -  8) =      9.17020  eV     1   --> B_2  G_4 D_2'  

 **************************************************************************

 **************************************************************************

                    xk=(  -0.06000,   0.00000,   0.00000  )

     Band symmetry, C_4v (4mm)  point group:

     e(  1 -  1) =     -5.78234  eV     1   --> A_1  G_1 D_1   
     e(  2 -  2) =      5.92544  eV     1   --> B_2  G_4 D_2'  
     e(  3 -  4) =      5.97116  eV     2   --> E    G_5 D_5   
     e(  5 -  5) =      8.56095  eV     1   --> A_1  G_1 D_1   
     e(  6 -  7) =      8.68337  eV     2   --> E    G_5 D_5   
     e(  8 -  8) =      9.22907  eV     1   --> B_2  G_4 D_2'  

 **************************************************************************

 **************************************************************************

                    xk=(  -0.08000,   0.00000,   0.00000  )

     Band symmetry, C_4v (4mm)  point group:

     e(  1 -  1) =     -5.77024  eV     1   --> A_1  G_1 D_1   
     e(  2 -  2) =      5.84447  eV     1   --> B_2  G_4 D_2'  
     e(  3 -  4) =      5.92349  eV     2   --> E    G_5 D_5   
     e(  5 -  5) =      8.53184  eV     1   --> A_1  G_1 D_1   
     e(  6 -  7) =      8.74587  eV     2   --> E    G_5 D_5   
     e(  8 -  8) =      9.30729  eV     1   --> B_2  G_4 D_2'  

 **************************************************************************

 **************************************************************************

                    xk=(  -0.10000,   0.00000,   0.00000  )

     Band symmetry, C_4v (4mm)  point group:

     e(  1 -  1) =     -5.75472  eV     1   --> A_1  G_1 D_1   
     e(  2 -  2) =      5.74587  eV     1   --> B_2  G_4 D_2'  
     e(  3 -  4) =      5.86535  eV     2   --> E    G_5 D_5   
     e(  5 -  5) =      8.49536  eV     1   --> A_1  G_1 D_1   
     e(  6 -  7) =      8.82307  eV     2   --> E    G_5 D_5   
     e(  8 -  8) =      9.40144  eV     1   --> B_2  G_4 D_2'  

 **************************************************************************

 **************************************************************************

                    xk=(  -0.12000,   0.00000,   0.00000  )

     Band symmetry, C_4v (4mm)  point group:

     e(  1 -  1) =     -5.73576  eV     1   --> A_1  G_1 D_1   
     e(  2 -  2) =      5.63246  eV     1   --> B_2  G_4 D_2'  
     e(  3 -  4) =      5.79846  eV     2   --> E    G_5 D_5   
     e(  5 -  5) =      8.45212  eV     1   --> A_1  G_1 D_1   
     e(  6 -  7) =      8.91321  eV     2   --> E    G_5 D_5   
     e(  8 -  8) =      9.50787  eV     1   --> B_2  G_4 D_2'  

 **************************************************************************

 **************************************************************************

                    xk=(  -0.14000,   0.00000,   0.00000  )

     Band symmetry, C_4v (4mm)  point group:

     e(  1 -  1) =     -5.71334  eV     1   --> A_1  G_1 D_1   
     e(  2 -  2) =      5.50682  eV     1   --> B_2  G_4 D_2'  
     e(  3 -  4) =      5.72449  eV     2   --> E    G_5 D_5   
     e(  5 -  5) =      8.40283  eV     1   --> A_1  G_1 D_1   
     e(  6 -  7) =      9.01463  eV     2   --> E    G_5 D_5   
     e(  8 -  8) =      9.62287  eV     1   --> B_2  G_4 D_2'  

 **************************************************************************

 **************************************************************************

                    xk=(  -0.16000,   0.00000,   0.00000  )

     Band symmetry, C_4v (4mm)  point group:

     e(  1 -  1) =     -5.68753  eV     1   --> A_1  G_1 D_1   
     e(  2 -  2) =      5.37121  eV     1   --> B_2  G_4 D_2'  
     e(  3 -  4) =      5.64493  eV     2   --> E    G_5 D_5   
     e(  5 -  5) =      8.34820  eV     1   --> A_1  G_1 D_1   
     e(  6 -  7) =      9.12580  eV     2   --> E    G_5 D_5   
     e(  8 -  8) =      9.74258  eV     1   --> B_2  G_4 D_2'  

 **************************************************************************

 **************************************************************************

                    xk=(  -0.18000,   0.00000,   0.00000  )

     Band symmetry, C_4v (4mm)  point group:

     e(  1 -  1) =     -5.65827  eV     1   --> A_1  G_1 D_1   
     e(  2 -  2) =      5.22750  eV     1   --> B_2  G_4 D_2'  
     e(  3 -  4) =      5.56111  eV     2   --> E    G_5 D_5   
     e(  5 -  5) =      8.28899  eV     1   --> A_1  G_1 D_1   
     e(  6 -  7) =      9.24538  eV     2   --> E    G_5 D_5   
     e(  8 -  8) =      9.86298  eV     1   --> B_2  G_4 D_2'  

 **************************************************************************

 **************************************************************************

                    xk=(  -0.20000,   0.00000,   0.00000  )

     Band symmetry, C_4v (4mm)  point group:

     e(  1 -  1) =     -5.62561  eV     1   --> A_1  G_1 D_1   
     e(  2 -  2) =      5.07719  eV     1   --> B_2  G_4 D_2'  
     e(  3 -  4) =      5.47414  eV     2   --> E    G_5 D_5   
     e(  5 -  5) =      8.22590  eV     1   --> A_1  G_1 D_1   
     e(  6 -  7) =      9.37222  eV     2   --> E    G_5 D_5   
     e(  8 -  8) =      9.97945  eV     1   --> B_2  G_4 D_2'  

 **************************************************************************

 **************************************************************************

                    xk=(  -0.22000,   0.00000,   0.00000  )

     Band symmetry, C_4v (4mm)  point group:

     e(  1 -  1) =     -5.58952  eV     1   --> A_1  G_1 D_1   
     e(  2 -  2) =      4.92160  eV     1   --> B_2  G_4 D_2'  
     e(  3 -  4) =      5.38498  eV     2   --> E    G_5 D_5   
     e(  5 -  5) =      8.15965  eV     1   --> A_1  G_1 D_1   
     e(  6 -  7) =      9.50535  eV     2   --> E    G_5 D_5   
     e(  8 -  8) =     10.08679  eV     1   --> B_2  G_4 D_2'  

 **************************************************************************

 **************************************************************************

                    xk=(  -0.24000,   0.00000,   0.00000  )

     Band symmetry, C_4v (4mm)  point group:

     e(  1 -  1) =     -5.55002  eV     1   --> A_1  G_1 D_1   
     e(  2 -  2) =      4.76169  eV     1   --> B_2  G_4 D_2'  
     e(  3 -  4) =      5.29442  eV     2   --> E    G_5 D_5   
     e(  5 -  5) =      8.09090  eV     1   --> A_1  G_1 D_1   
     e(  6 -  7) =      9.64395  eV     2   --> E    G_5 D_5   
     e(  8 -  8) =     10.17875  eV     1   --> B_2  G_4 D_2'  

 **************************************************************************

 **************************************************************************

                    xk=(  -0.26000,   0.00000,   0.00000  )

     Band symmetry, C_4v (4mm)  point group:

     e(  1 -  1) =     -5.50712  eV     1   --> A_1  G_1 D_1   
     e(  2 -  2) =      4.59828  eV     1   --> B_2  G_4 D_2'  
     e(  3 -  4) =      5.20312  eV     2   --> E    G_5 D_5   
     e(  5 -  5) =      8.02025  eV     1   --> A_1  G_1 D_1   
     e(  6 -  7) =      9.78732  eV     2   --> E    G_5 D_5   
     e(  8 -  8) =     10.24839  eV     1   --> B_2  G_4 D_2'  

 **************************************************************************

 **************************************************************************

                    xk=(  -0.28000,   0.00000,   0.00000  )

     Band symmetry, C_4v (4mm)  point group:

     e(  1 -  1) =     -5.46084  eV     1   --> A_1  G_1 D_1   
     e(  2 -  2) =      4.43201  eV     1   --> B_2  G_4 D_2'  
     e(  3 -  4) =      5.11163  eV     2   --> E    G_5 D_5   
     e(  5 -  5) =      7.94830  eV     1   --> A_1  G_1 D_1   
     e(  6 -  7) =      9.93489  eV     2   --> E    G_5 D_5   
     e(  8 -  8) =     10.28892  eV     1   --> B_2  G_4 D_2'  

 **************************************************************************

 **************************************************************************

                    xk=(  -0.30000,   0.00000,   0.00000  )

     Band symmetry, C_4v (4mm)  point group:

     e(  1 -  1) =     -5.41118  eV     1   --> A_1  G_1 D_1   
     e(  2 -  2) =      4.26341  eV     1   --> B_2  G_4 D_2'  
     e(  3 -  4) =      5.02042  eV     2   --> E    G_5 D_5   
     e(  5 -  5) =      7.87554  eV     1   --> A_1  G_1 D_1   
     e(  6 -  7) =     10.08616  eV     2   --> E    G_5 D_5   
     e(  8 -  8) =     10.29544  eV     1   --> B_2  G_4 D_2'  

 **************************************************************************

 **************************************************************************

                    xk=(  -0.32000,   0.00000,   0.00000  )

     Band symmetry, C_4v (4mm)  point group:

     e(  1 -  1) =     -5.35817  eV     1   --> A_1  G_1 D_1   
     e(  2 -  2) =      4.09289  eV     1   --> B_2  G_4 D_2'  
     e(  3 -  4) =      4.92986  eV     2   --> E    G_5 D_5   
     e(  5 -  5) =      7.80247  eV     1   --> A_1  G_1 D_1   
     e(  6 -  7) =     10.24072  eV     2   --> E    G_5 D_5   
     e(  8 -  8) =     10.26664  eV     1   --> B_2  G_4 D_2'  

 **************************************************************************

 **************************************************************************

                    xk=(  -0.34000,   0.00000,   0.00000  )

     Band symmetry, C_4v (4mm)  point group:

     e(  1 -  1) =     -5.30180  eV     1   --> A_1  G_1 D_1   
     e(  2 -  2) =      3.92081  eV     1   --> B_2  G_4 D_2'  
     e(  3 -  4) =      4.84029  eV     2   --> E    G_5 D_5   
     e(  5 -  5) =      7.72952  eV     1   --> A_1  G_1 D_1   
     e(  6 -  6) =     10.20525  eV     1   --> B_2  G_4 D_2'  
     e(  7 -  8) =     10.39821  eV     2   --> E    G_5 D_5   

 **************************************************************************

 **************************************************************************

                    xk=(  -0.36000,   0.00000,   0.00000  )

     Band symmetry, C_4v (4mm)  point group:

     e(  1 -  1) =     -5.24212  eV     1   --> A_1  G_1 D_1   
     e(  2 -  2) =      3.74745  eV     1   --> B_2  G_4 D_2'  
     e(  3 -  4) =      4.75198  eV     2   --> E    G_5 D_5   
     e(  5 -  5) =      7.65707  eV     1   --> A_1  G_1 D_1   
     e(  6 -  6) =     10.11680  eV     1   --> B_2  G_4 D_2'  
     e(  7 -  8) =     10.55834  eV     2   --> E    G_5 D_5   

 **************************************************************************

 **************************************************************************

                    xk=(  -0.38000,   0.00000,   0.00000  )

     Band symmetry, C_4v (4mm)  point group:

     e(  1 -  1) =     -5.17909  eV     1   --> A_1  G_1 D_1   
     e(  2 -  2) =      3.57305  eV     1   --> B_2  G_4 D_2'  
     e(  3 -  4) =      4.66516  eV     2   --> E    G_5 D_5   
     e(  5 -  5) =      7.58548  eV     1   --> A_1  G_1 D_1   
     e(  6 -  6) =     10.00762  eV     1   --> B_2  G_4 D_2'  
     e(  7 -  8) =     10.72084  eV     2   --> E    G_5 D_5   

 **************************************************************************

 **************************************************************************

                    xk=(  -0.40000,   0.00000,   0.00000  )

     Band symmetry, C_4v (4mm)  point group:

     e(  1 -  1) =     -5.11276  eV     1   --> A_1  G_1 D_1   
     e(  2 -  2) =      3.39778  eV     1   --> B_2  G_4 D_2'  
     e(  3 -  4) =      4.58003  eV     2   --> E    G_5 D_5   
     e(  5 -  5) =      7.51507  eV     1   --> A_1  G_1 D_1   
     e(  6 -  6) =      9.88358  eV     1   --> B_2  G_4 D_2'  
     e(  7 -  8) =     10.88547  eV     2   --> E    G_5 D_5   

 **************************************************************************

 **************************************************************************

                    xk=(  -0.42000,   0.00000,   0.00000  )

     Band symmetry, C_4v (4mm)  point group:

     e(  1 -  1) =     -5.04313  eV     1   --> A_1  G_1 D_1   
     e(  2 -  2) =      3.22187  eV     1   --> B_2  G_4 D_2'  
     e(  3 -  4) =      4.49678  eV     2   --> E    G_5 D_5   
     e(  5 -  5) =      7.44612  eV     1   --> A_1  G_1 D_1   
     e(  6 -  6) =      9.74948  eV     1   --> B_2  G_4 D_2'  
     e(  7 -  8) =     11.05206  eV     2   --> E    G_5 D_5   

 **************************************************************************

 **************************************************************************

                    xk=(  -0.44000,   0.00000,   0.00000  )

     Band symmetry, C_4v (4mm)  point group:

     e(  1 -  1) =     -4.97024  eV     1   --> A_1  G_1 D_1   
     e(  2 -  2) =      3.04542  eV     1   --> B_2  G_4 D_2'  
     e(  3 -  4) =      4.41554  eV     2   --> E    G_5 D_5   
     e(  5 -  5) =      7.37890  eV     1   --> A_1  G_1 D_1   
     e(  6 -  6) =      9.60891  eV     1   --> B_2  G_4 D_2'  
     e(  7 -  8) =     11.22044  eV     2   --> E    G_5 D_5   

 **************************************************************************

 **************************************************************************

                    xk=(  -0.46000,   0.00000,   0.00000  )

     Band symmetry, C_4v (4mm)  point group:

     e(  1 -  1) =     -4.89410  eV     1   --> A_1  G_1 D_1   
     e(  2 -  2) =      2.86857  eV     1   --> B_2  G_4 D_2'  
     e(  3 -  4) =      4.33645  eV     2   --> E    G_5 D_5   
     e(  5 -  5) =      7.31364  eV     1   --> A_1  G_1 D_1   
     e(  6 -  6) =      9.46467  eV     1   --> B_2  G_4 D_2'  
     e(  7 -  8) =     11.39044  eV     2   --> E    G_5 D_5   

 **************************************************************************

 **************************************************************************

                    xk=(  -0.48000,   0.00000,   0.00000  )

     Band symmetry, C_4v (4mm)  point group:

     e(  1 -  1) =     -4.81473  eV     1   --> A_1  G_1 D_1   
     e(  2 -  2) =      2.69143  eV     1   --> B_2  G_4 D_2'  
     e(  3 -  4) =      4.25961  eV     2   --> E    G_5 D_5   
     e(  5 -  5) =      7.25054  eV     1   --> A_1  G_1 D_1   
     e(  6 -  6) =      9.31882  eV     1   --> B_2  G_4 D_2'  
     e(  7 -  8) =     11.56195  eV     2   --> E    G_5 D_5   

 **************************************************************************

 **************************************************************************

                    xk=(  -0.50000,   0.00000,   0.00000  )

     Band symmetry, C_4v (4mm)  point group:

     e(  1 -  1) =     -4.73214  eV     1   --> A_1  G_1 D_1   
     e(  2 -  2) =      2.51411  eV     1   --> B_2  G_4 D_2'  
     e(  3 -  4) =      4.18513  eV     2   --> E    G_5 D_5   
     e(  5 -  5) =      7.18982  eV     1   --> A_1  G_1 D_1   
     e(  6 -  6) =      9.17289  eV     1   --> B_2  G_4 D_2'  
     e(  7 -  8) =     11.73486  eV     2   --> E    G_5 D_5   

 **************************************************************************

 **************************************************************************

                    xk=(  -0.52000,   0.00000,   0.00000  )

     Band symmetry, C_4v (4mm)  point group:

     e(  1 -  1) =     -4.64638  eV     1   --> A_1  G_1 D_1   
     e(  2 -  2) =      2.33670  eV     1   --> B_2  G_4 D_2'  
     e(  3 -  4) =      4.11310  eV     2   --> E    G_5 D_5   
     e(  5 -  5) =      7.13164  eV     1   --> A_1  G_1 D_1   
     e(  6 -  6) =      9.02806  eV     1   --> B_2  G_4 D_2'  
     e(  7 -  8) =     11.90906  eV     2   --> E    G_5 D_5   

 **************************************************************************

 **************************************************************************

                    xk=(  -0.54000,   0.00000,   0.00000  )

     Band symmetry, C_4v (4mm)  point group:

     e(  1 -  1) =     -4.55745  eV     1   --> A_1  G_1 D_1   
     e(  2 -  2) =      2.15930  eV     1   --> B_2  G_4 D_2'  
     e(  3 -  4) =      4.04359  eV     2   --> E    G_5 D_5   
     e(  5 -  5) =      7.07615  eV     1   --> A_1  G_1 D_1   
     e(  6 -  6) =      8.88521  eV     1   --> B_2  G_4 D_2'  
     e(  7 -  8) =     12.08447  eV     2   --> E    G_5 D_5   

 **************************************************************************

 **************************************************************************

                    xk=(  -0.56000,   0.00000,   0.00000  )

     Band symmetry, C_4v (4mm)  point group:

     e(  1 -  1) =     -4.46536  eV     1   --> A_1  G_1 D_1   
     e(  2 -  2) =      1.98200  eV     1   --> B_2  G_4 D_2'  
     e(  3 -  4) =      3.97668  eV     2   --> E    G_5 D_5   
     e(  5 -  5) =      7.02353  eV     1   --> A_1  G_1 D_1   
     e(  6 -  6) =      8.74503  eV     1   --> B_2  G_4 D_2'  
     e(  7 -  8) =     12.26102  eV     2   --> E    G_5 D_5   

 **************************************************************************

 **************************************************************************

                    xk=(  -0.58000,   0.00000,   0.00000  )

     Band symmetry, C_4v (4mm)  point group:

     e(  1 -  1) =     -4.37016  eV     1   --> A_1  G_1 D_1   
     e(  2 -  2) =      1.80487  eV     1   --> B_2  G_4 D_2'  
     e(  3 -  4) =      3.91242  eV     2   --> E    G_5 D_5   
     e(  5 -  5) =      6.97388  eV     1   --> A_1  G_1 D_1   
     e(  6 -  6) =      8.60806  eV     1   --> B_2  G_4 D_2'  
     e(  7 -  8) =     12.43865  eV     2   --> E    G_5 D_5   

 **************************************************************************

 **************************************************************************

                    xk=(  -0.60000,   0.00000,   0.00000  )

     Band symmetry, C_4v (4mm)  point group:

     e(  1 -  1) =     -4.27190  eV     1   --> A_1  G_1 D_1   
     e(  2 -  2) =      1.62802  eV     1   --> B_2  G_4 D_2'  
     e(  3 -  4) =      3.85087  eV     2   --> E    G_5 D_5   
     e(  5 -  5) =      6.92734  eV     1   --> A_1  G_1 D_1   
     e(  6 -  6) =      8.47472  eV     1   --> B_2  G_4 D_2'  
     e(  7 -  8) =     12.61729  eV     2   --> E    G_5 D_5   

 **************************************************************************

 **************************************************************************

                    xk=(  -0.62000,   0.00000,   0.00000  )

     Band symmetry, C_4v (4mm)  point group:

     e(  1 -  1) =     -4.17063  eV     1   --> A_1  G_1 D_1   
     e(  2 -  2) =      1.45152  eV     1   --> B_2  G_4 D_2'  
     e(  3 -  4) =      3.79208  eV     2   --> E    G_5 D_5   
     e(  5 -  5) =      6.88402  eV     1   --> A_1  G_1 D_1   
     e(  6 -  6) =      8.34533  eV     1   --> B_2  G_4 D_2'  
     e(  7 -  8) =     12.79690  eV     2   --> E    G_5 D_5   

 **************************************************************************

 **************************************************************************

                    xk=(  -0.64000,   0.00000,   0.00000  )

     Band symmetry, C_4v (4mm)  point group:

     e(  1 -  1) =     -4.06630  eV     1   --> A_1  G_1 D_1   
     e(  2 -  2) =      1.27547  eV     1   --> B_2  G_4 D_2'  
     e(  3 -  4) =      3.73609  eV     2   --> E    G_5 D_5   
     e(  5 -  5) =      6.84405  eV     1   --> A_1  G_1 D_1   
     e(  6 -  6) =      8.22016  eV     1   --> B_2  G_4 D_2'  
     e(  7 -  8) =     12.97743  eV     2   --> E    G_5 D_5   

 **************************************************************************

 **************************************************************************

                    xk=(  -0.66000,   0.00000,   0.00000  )

     Band symmetry, C_4v (4mm)  point group:

     e(  1 -  1) =     -3.95899  eV     1   --> A_1  G_1 D_1   
     e(  2 -  2) =      1.09994  eV     1   --> B_2  G_4 D_2'  
     e(  3 -  4) =      3.68294  eV     2   --> E    G_5 D_5   
     e(  5 -  5) =      6.80752  eV     1   --> A_1  G_1 D_1   
     e(  6 -  6) =      8.09941  eV     1   --> B_2  G_4 D_2'  
     e(  7 -  8) =     13.15884  eV     2   --> E    G_5 D_5   

 **************************************************************************

 **************************************************************************

                    xk=(  -0.68000,   0.00000,   0.00000  )

     Band symmetry, C_4v (4mm)  point group:

     e(  1 -  1) =     -3.84872  eV     1   --> A_1  G_1 D_1   
     e(  2 -  2) =      0.92502  eV     1   --> B_2  G_4 D_2'  
     e(  3 -  4) =      3.63267  eV     2   --> E    G_5 D_5   
     e(  5 -  5) =      6.77453  eV     1   --> A_1  G_1 D_1   
     e(  6 -  6) =      7.98325  eV     1   --> B_2  G_4 D_2'  
     e(  7 -  8) =     13.34107  eV     2   --> E    G_5 D_5   

 **************************************************************************

 **************************************************************************

                    xk=(  -0.70000,   0.00000,   0.00000  )

     Band symmetry, C_4v (4mm)  point group:

     e(  1 -  1) =     -3.73553  eV     1   --> A_1  G_1 D_1   
     e(  2 -  2) =      0.75081  eV     1   --> B_2  G_4 D_2'  
     e(  3 -  4) =      3.58531  eV     2   --> E    G_5 D_5   
     e(  5 -  5) =      6.74515  eV     1   --> A_1  G_1 D_1   
     e(  6 -  6) =      7.87180  eV     1   --> B_2  G_4 D_2'  
     e(  7 -  8) =     13.52409  eV     2   --> E    G_5 D_5   

 **************************************************************************

 **************************************************************************

                    xk=(  -0.72000,   0.00000,   0.00000  )

     Band symmetry, C_4v (4mm)  point group:

     e(  1 -  1) =     -3.61944  eV     1   --> A_1  G_1 D_1   
     e(  2 -  2) =      0.57738  eV     1   --> B_2  G_4 D_2'  
     e(  3 -  4) =      3.54089  eV     2   --> E    G_5 D_5   
     e(  5 -  5) =      6.71948  eV     1   --> A_1  G_1 D_1   
     e(  6 -  6) =      7.76516  eV     1   --> B_2  G_4 D_2'  
     e(  7 -  8) =     13.70782  eV     2   --> E    G_5 D_5   

 **************************************************************************

 **************************************************************************

                    xk=(  -0.74000,   0.00000,   0.00000  )

     Band symmetry, C_4v (4mm)  point group:

     e(  1 -  1) =     -3.50054  eV     1   --> A_1  G_1 D_1   
     e(  2 -  2) =      0.40483  eV     1   --> B_2  G_4 D_2'  
     e(  3 -  4) =      3.49943  eV     2   --> E    G_5 D_5   
     e(  5 -  5) =      6.69760  eV     1   --> A_1  G_1 D_1   
     e(  6 -  6) =      7.66339  eV     1   --> B_2  G_4 D_2'  
     e(  7 -  8) =     13.89219  eV     2   --> E    G_5 D_5   

 **************************************************************************

 **************************************************************************

                    xk=(  -0.76000,   0.00000,   0.00000  )

     Band symmetry, C_4v (4mm)  point group:

     e(  1 -  1) =     -3.37884  eV     1   --> A_1  G_1 D_1   
     e(  2 -  2) =      0.23325  eV     1   --> B_2  G_4 D_2'  
     e(  3 -  4) =      3.46095  eV     2   --> E    G_5 D_5   
     e(  5 -  5) =      6.67959  eV     1   --> A_1  G_1 D_1   
     e(  6 -  6) =      7.56654  eV     1   --> B_2  G_4 D_2'  
     e(  7 -  8) =     14.07711  eV     2   --> E    G_5 D_5   

 **************************************************************************

 **************************************************************************

                    xk=(  -0.78000,   0.00000,   0.00000  )

     Band symmetry, C_4v (4mm)  point group:

     e(  1 -  1) =     -3.25439  eV     1   --> A_1  G_1 D_1   
     e(  2 -  2) =      0.06273  eV     1   --> B_2  G_4 D_2'  
     e(  3 -  4) =      3.42549  eV     2   --> E    G_5 D_5   
     e(  5 -  5) =      6.66551  eV     1   --> A_1  G_1 D_1   
     e(  6 -  6) =      7.47467  eV     1   --> B_2  G_4 D_2'  
     e(  7 -  8) =     14.26244  eV     2   --> E    G_5 D_5   

 **************************************************************************

 **************************************************************************

                    xk=(  -0.80000,   0.00000,   0.00000  )

     Band symmetry, C_4v (4mm)  point group:

     e(  1 -  1) =     -3.12724  eV     1   --> A_1  G_1 D_1   
     e(  2 -  2) =     -0.10666  eV     1   --> B_2  G_4 D_2'  
     e(  3 -  4) =      3.39305  eV     2   --> E    G_5 D_5   
     e(  5 -  5) =      6.65544  eV     1   --> A_1  G_1 D_1   
     e(  6 -  6) =      7.38775  eV     1   --> B_2  G_4 D_2'  
     e(  7 -  8) =     14.44800  eV     2   --> E    G_5 D_5   

 **************************************************************************

 **************************************************************************

                    xk=(  -0.82000,   0.00000,   0.00000  )

     Band symmetry, C_4v (4mm)  point group:

     e(  1 -  1) =     -2.99742  eV     1   --> A_1  G_1 D_1   
     e(  2 -  2) =     -0.27481  eV     1   --> B_2  G_4 D_2'  
     e(  3 -  4) =      3.36365  eV     2   --> E    G_5 D_5   
     e(  5 -  5) =      6.64945  eV     1   --> A_1  G_1 D_1   
     e(  6 -  6) =      7.30582  eV     1   --> B_2  G_4 D_2'  
     e(  7 -  8) =     14.63353  eV     2   --> E    G_5 D_5   

 **************************************************************************

 **************************************************************************

                    xk=(  -0.84000,   0.00000,   0.00000  )

     Band symmetry, C_4v (4mm)  point group:

     e(  1 -  1) =     -2.86500  eV     1   --> A_1  G_1 D_1   
     e(  2 -  2) =     -0.44164  eV     1   --> B_2  G_4 D_2'  
     e(  3 -  4) =      3.33732  eV     2   --> E    G_5 D_5   
     e(  5 -  5) =      6.64760  eV     1   --> A_1  G_1 D_1   
     e(  6 -  6) =      7.22886  eV     1   --> B_2  G_4 D_2'  
     e(  7 -  8) =     14.81862  eV     2   --> E    G_5 D_5   

 **************************************************************************

 **************************************************************************

                    xk=(  -0.86000,   0.00000,   0.00000  )

     Band symmetry, C_4v (4mm)  point group:

     e(  1 -  1) =     -2.73003  eV     1   --> A_1  G_1 D_1   
     e(  2 -  2) =     -0.60707  eV     1   --> B_2  G_4 D_2'  
     e(  3 -  4) =      3.31405  eV     2   --> E    G_5 D_5   
     e(  5 -  5) =      6.64997  eV     1   --> A_1  G_1 D_1   
     e(  6 -  6) =      7.15686  eV     1   --> B_2  G_4 D_2'  
     e(  7 -  8) =     15.00268  eV     2   --> E    G_5 D_5   

 **************************************************************************

 **************************************************************************

                    xk=(  -0.88000,   0.00000,   0.00000  )

     Band symmetry, C_4v (4mm)  point group:

     e(  1 -  1) =     -2.59255  eV     1   --> A_1  G_1 D_1   
     e(  2 -  2) =     -0.77099  eV     1   --> B_2  G_4 D_2'  
     e(  3 -  4) =      3.29386  eV     2   --> E    G_5 D_5   
     e(  5 -  5) =      6.65660  eV     1   --> A_1  G_1 D_1   
     e(  6 -  6) =      7.08981  eV     1   --> B_2  G_4 D_2'  
     e(  7 -  8) =     15.18478  eV     2   --> E    G_5 D_5   

 **************************************************************************

 **************************************************************************

                    xk=(  -0.90000,   0.00000,   0.00000  )

     Band symmetry, C_4v (4mm)  point group:

     e(  1 -  1) =     -2.45264  eV     1   --> A_1  G_1 D_1   
     e(  2 -  2) =     -0.93334  eV     1   --> B_2  G_4 D_2'  
     e(  3 -  4) =      3.27676  eV     2   --> E    G_5 D_5   
     e(  5 -  5) =      6.66756  eV     1   --> A_1  G_1 D_1   
     e(  6 -  6) =      7.02766  eV     1   --> B_2  G_4 D_2'  
     e(  7 -  8) =     15.36335  eV     2   --> E    G_5 D_5   

 **************************************************************************

 **************************************************************************

                    xk=(  -0.92000,   0.00000,   0.00000  )

     Band symmetry, C_4v (4mm)  point group:

     e(  1 -  1) =     -2.31034  eV     1   --> A_1  G_1 D_1   
     e(  2 -  2) =     -1.09403  eV     1   --> B_2  G_4 D_2'  
     e(  3 -  4) =      3.26276  eV     2   --> E    G_5 D_5   
     e(  5 -  5) =      6.68292  eV     1   --> A_1  G_1 D_1   
     e(  6 -  6) =      6.97040  eV     1   --> B_2  G_4 D_2'  
     e(  7 -  8) =     15.53568  eV     2   --> E    G_5 D_5   

 **************************************************************************

 **************************************************************************

                    xk=(  -0.94000,   0.00000,   0.00000  )

     Band symmetry, C_4v (4mm)  point group:

     e(  1 -  1) =     -2.16571  eV     1   --> A_1  G_1 D_1   
     e(  2 -  2) =     -1.25297  eV     1   --> B_2  G_4 D_2'  
     e(  3 -  4) =      3.25187  eV     2   --> E    G_5 D_5   
     e(  5 -  5) =      6.70272  eV     1   --> A_1  G_1 D_1   
     e(  6 -  6) =      6.91799  eV     1   --> B_2  G_4 D_2'  
     e(  7 -  8) =     15.69681  eV     2   --> E    G_5 D_5   

 **************************************************************************

 **************************************************************************

                    xk=(  -0.96000,   0.00000,   0.00000  )

     Band symmetry, C_4v (4mm)  point group:

     e(  1 -  1) =     -2.01883  eV     1   --> A_1  G_1 D_1   
     e(  2 -  2) =     -1.41009  eV     1   --> B_2  G_4 D_2'  
     e(  3 -  4) =      3.24408  eV     2   --> E    G_5 D_5   
     e(  5 -  5) =      6.72703  eV     1   --> A_1  G_1 D_1   
     e(  6 -  6) =      6.87037  eV     1   --> B_2  G_4 D_2'  
     e(  7 -  8) =     15.83723  eV     2   --> E    G_5 D_5   

 **************************************************************************

 **************************************************************************

                    xk=(  -0.98000,   0.00000,   0.00000  )

     Band symmetry, C_4v (4mm)  point group:

     e(  1 -  1) =     -1.86976  eV     1   --> A_1  G_1 D_1   
     e(  2 -  2) =     -1.56535  eV     1   --> B_2  G_4 D_2'  
     e(  3 -  4) =      3.23941  eV     2   --> E    G_5 D_5   
     e(  5 -  5) =      6.75590  eV     1   --> A_1  G_1 D_1   
     e(  6 -  6) =      6.82752  eV     1   --> B_2  G_4 D_2'  
     e(  7 -  8) =     15.93934  eV     2   --> E    G_5 D_5   

 **************************************************************************

 **************************************************************************

                    xk=(  -1.00000,   0.00000,   0.00000  )

     zone border point and non-symmorphic group 
     symmetry decomposition not available

 **************************************************************************

 **************************************************************************

                    xk=(  -1.00000,   0.01000,   0.00000  )

     zone border point and non-symmorphic group 
     symmetry decomposition not available

 **************************************************************************

 **************************************************************************

                    xk=(  -1.00000,   0.02000,   0.00000  )

     zone border point and non-symmorphic group 
     symmetry decomposition not available

 **************************************************************************

 **************************************************************************

                    xk=(  -1.00000,   0.03000,   0.00000  )

     zone border point and non-symmorphic group 
     symmetry decomposition not available

 **************************************************************************

 **************************************************************************

                    xk=(  -1.00000,   0.04000,   0.00000  )

     zone border point and non-symmorphic group 
     symmetry decomposition not available

 **************************************************************************

 **************************************************************************

                    xk=(  -1.00000,   0.05000,   0.00000  )

     zone border point and non-symmorphic group 
     symmetry decomposition not available

 **************************************************************************

 **************************************************************************

                    xk=(  -1.00000,   0.06000,   0.00000  )

     zone border point and non-symmorphic group 
     symmetry decomposition not available

 **************************************************************************

 **************************************************************************

                    xk=(  -1.00000,   0.07000,   0.00000  )

     zone border point and non-symmorphic group 
     symmetry decomposition not available

 **************************************************************************

 **************************************************************************

                    xk=(  -1.00000,   0.08000,   0.00000  )

     zone border point and non-symmorphic group 
     symmetry decomposition not available

 **************************************************************************

 **************************************************************************

                    xk=(  -1.00000,   0.09000,   0.00000  )

     zone border point and non-symmorphic group 
     symmetry decomposition not available

 **************************************************************************

 **************************************************************************

                    xk=(  -1.00000,   0.10000,   0.00000  )

     zone border point and non-symmorphic group 
     symmetry decomposition not available

 **************************************************************************

 **************************************************************************

                    xk=(  -1.00000,   0.11000,   0.00000  )

     zone border point and non-symmorphic group 
     symmetry decomposition not available

 **************************************************************************

 **************************************************************************

                    xk=(  -1.00000,   0.12000,   0.00000  )

     zone border point and non-symmorphic group 
     symmetry decomposition not available

 **************************************************************************

 **************************************************************************

                    xk=(  -1.00000,   0.13000,   0.00000  )

     zone border point and non-symmorphic group 
     symmetry decomposition not available

 **************************************************************************

 **************************************************************************

                    xk=(  -1.00000,   0.14000,   0.00000  )

     zone border point and non-symmorphic group 
     symmetry decomposition not available

 **************************************************************************

 **************************************************************************

                    xk=(  -1.00000,   0.15000,   0.00000  )

     zone border point and non-symmorphic group 
     symmetry decomposition not available

 **************************************************************************

 **************************************************************************

                    xk=(  -1.00000,   0.16000,   0.00000  )

     zone border point and non-symmorphic group 
     symmetry decomposition not available

 **************************************************************************

 **************************************************************************

                    xk=(  -1.00000,   0.17000,   0.00000  )

     zone border point and non-symmorphic group 
     symmetry decomposition not available

 **************************************************************************

 **************************************************************************

                    xk=(  -1.00000,   0.18000,   0.00000  )

     zone border point and non-symmorphic group 
     symmetry decomposition not available

 **************************************************************************

 **************************************************************************

                    xk=(  -1.00000,   0.19000,   0.00000  )

     zone border point and non-symmorphic group 
     symmetry decomposition not available

 **************************************************************************

 **************************************************************************

                    xk=(  -1.00000,   0.20000,   0.00000  )

     zone border point and non-symmorphic group 
     symmetry decomposition not available

 **************************************************************************

 **************************************************************************

                    xk=(  -1.00000,   0.21000,   0.00000  )

     zone border point and non-symmorphic group 
     symmetry decomposition not available

 **************************************************************************

 **************************************************************************

                    xk=(  -1.00000,   0.22000,   0.00000  )

     zone border point and non-symmorphic group 
     symmetry decomposition not available

 **************************************************************************

 **************************************************************************

                    xk=(  -1.00000,   0.23000,   0.00000  )

     zone border point and non-symmorphic group 
     symmetry decomposition not available

 **************************************************************************

 **************************************************************************

                    xk=(  -1.00000,   0.24000,   0.00000  )

     zone border point and non-symmorphic group 
     symmetry decomposition not available

 **************************************************************************

 **************************************************************************

                    xk=(  -1.00000,   0.25000,   0.00000  )

     zone border point and non-symmorphic group 
     symmetry decomposition not available

 **************************************************************************

 **************************************************************************

                    xk=(  -1.00000,   0.26000,   0.00000  )

     zone border point and non-symmorphic group 
     symmetry decomposition not available

 **************************************************************************

 **************************************************************************

                    xk=(  -1.00000,   0.27000,   0.00000  )

     zone border point and non-symmorphic group 
     symmetry decomposition not available

 **************************************************************************

 **************************************************************************

                    xk=(  -1.00000,   0.28000,   0.00000  )

     zone border point and non-symmorphic group 
     symmetry decomposition not available

 **************************************************************************

 **************************************************************************

                    xk=(  -1.00000,   0.29000,   0.00000  )

     zone border point and non-symmorphic group 
     symmetry decomposition not available

 **************************************************************************

 **************************************************************************

                    xk=(  -1.00000,   0.30000,   0.00000  )

     zone border point and non-symmorphic group 
     symmetry decomposition not available

 **************************************************************************

 **************************************************************************

                    xk=(  -1.00000,   0.31000,   0.00000  )

     zone border point and non-symmorphic group 
     symmetry decomposition not available

 **************************************************************************

 **************************************************************************

                    xk=(  -1.00000,   0.32000,   0.00000  )

     zone border point and non-symmorphic group 
     symmetry decomposition not available

 **************************************************************************

 **************************************************************************

                    xk=(  -1.00000,   0.33000,   0.00000  )

     zone border point and non-symmorphic group 
     symmetry decomposition not available

 **************************************************************************

 **************************************************************************

                    xk=(  -1.00000,   0.34000,   0.00000  )

     zone border point and non-symmorphic group 
     symmetry decomposition not available

 **************************************************************************

 **************************************************************************

                    xk=(  -1.00000,   0.35000,   0.00000  )

     zone border point and non-symmorphic group 
[...]
     e(  7 -  7) =     10.38555  eV     1   --> A''            
     e(  8 -  8) =     11.14589  eV     1   --> A'             

 **************************************************************************

 **************************************************************************

                    xk=(  -0.44000,   0.22000,   0.00000  )

     Band symmetry, C_s (m)     point group:

     e(  1 -  1) =     -4.77651  eV     1   --> A'             
     e(  2 -  2) =      2.29932  eV     1   --> A''            
     e(  3 -  3) =      3.74554  eV     1   --> A'             
     e(  4 -  4) =      4.90886  eV     1   --> A''            
     e(  5 -  5) =      8.41150  eV     1   --> A'             
     e(  6 -  6) =      9.76343  eV     1   --> A''            
     e(  7 -  7) =     10.46652  eV     1   --> A''            
     e(  8 -  8) =     10.98128  eV     1   --> A'             

 **************************************************************************

 **************************************************************************

                    xk=(  -0.42000,   0.21000,   0.00000  )

     Band symmetry, C_s (m)     point group:

     e(  1 -  1) =     -4.86518  eV     1   --> A'             
     e(  2 -  2) =      2.48361  eV     1   --> A''            
     e(  3 -  3) =      3.87220  eV     1   --> A'             
     e(  4 -  4) =      4.99544  eV     1   --> A''            
     e(  5 -  5) =      8.39608  eV     1   --> A'             
     e(  6 -  6) =      9.72150  eV     1   --> A''            
     e(  7 -  7) =     10.55288  eV     1   --> A''            
     e(  8 -  8) =     10.81992  eV     1   --> A'             

 **************************************************************************

 **************************************************************************

                    xk=(  -0.40000,   0.20000,   0.00000  )

     Band symmetry, C_s (m)     point group:

     e(  1 -  1) =     -4.95015  eV     1   --> A'             
     e(  2 -  2) =      2.67062  eV     1   --> A''            
     e(  3 -  3) =      4.00085  eV     1   --> A'             
     e(  4 -  4) =      5.07935  eV     1   --> A''            
     e(  5 -  5) =      8.38469  eV     1   --> A'             
     e(  6 -  6) =      9.67505  eV     1   --> A''            
     e(  7 -  7) =     10.64200  eV     1   --> A''            
     e(  8 -  8) =     10.66184  eV     1   --> A'             

 **************************************************************************

 **************************************************************************

                    xk=(  -0.38000,   0.19000,   0.00000  )

     Band symmetry, C_s (m)     point group:

     e(  1 -  1) =     -5.03134  eV     1   --> A'             
     e(  2 -  2) =      2.86021  eV     1   --> A''            
     e(  3 -  3) =      4.13114  eV     1   --> A'             
     e(  4 -  4) =      5.16051  eV     1   --> A''            
     e(  5 -  5) =      8.37724  eV     1   --> A'             
     e(  6 -  6) =      9.62463  eV     1   --> A''            
     e(  7 -  7) =     10.50711  eV     1   --> A'             
     e(  8 -  8) =     10.73053  eV     1   --> A''            

 **************************************************************************

 **************************************************************************

                    xk=(  -0.36000,   0.18000,   0.00000  )

     Band symmetry, C_s (m)     point group:

     e(  1 -  1) =     -5.10868  eV     1   --> A'             
     e(  2 -  2) =      3.05222  eV     1   --> A''            
     e(  3 -  3) =      4.26270  eV     1   --> A'             
     e(  4 -  4) =      5.23886  eV     1   --> A''            
     e(  5 -  5) =      8.37362  eV     1   --> A'             
     e(  6 -  6) =      9.57076  eV     1   --> A''            
     e(  7 -  7) =     10.35578  eV     1   --> A'             
     e(  8 -  8) =     10.81395  eV     1   --> A''            

 **************************************************************************

 **************************************************************************

                    xk=(  -0.34000,   0.17000,   0.00000  )

     Band symmetry, C_s (m)     point group:

     e(  1 -  1) =     -5.18212  eV     1   --> A'             
     e(  2 -  2) =      3.24648  eV     1   --> A''            
     e(  3 -  3) =      4.39511  eV     1   --> A'             
     e(  4 -  4) =      5.31434  eV     1   --> A''            
     e(  5 -  5) =      8.37367  eV     1   --> A'             
     e(  6 -  6) =      9.51395  eV     1   --> A''            
     e(  7 -  7) =     10.20795  eV     1   --> A'             
     e(  8 -  8) =     10.88583  eV     1   --> A''            

 **************************************************************************

 **************************************************************************

                    xk=(  -0.32000,   0.16000,   0.00000  )

     Band symmetry, C_s (m)     point group:

     e(  1 -  1) =     -5.25160  eV     1   --> A'             
     e(  2 -  2) =      3.44276  eV     1   --> A''            
     e(  3 -  3) =      4.52792  eV     1   --> A'             
     e(  4 -  4) =      5.38691  eV     1   --> A''            
     e(  5 -  5) =      8.37721  eV     1   --> A'             
     e(  6 -  6) =      9.45474  eV     1   --> A''            
     e(  7 -  7) =     10.06371  eV     1   --> A'             
     e(  8 -  8) =     10.93734  eV     1   --> A''            

 **************************************************************************

 **************************************************************************

                    xk=(  -0.30000,   0.15000,   0.00000  )

     Band symmetry, C_s (m)     point group:

     e(  1 -  1) =     -5.31708  eV     1   --> A'             
     e(  2 -  2) =      3.64080  eV     1   --> A''            
     e(  3 -  3) =      4.66064  eV     1   --> A'             
     e(  4 -  4) =      5.45650  eV     1   --> A''            
     e(  5 -  5) =      8.38405  eV     1   --> A'             
     e(  6 -  6) =      9.39369  eV     1   --> A''            
     e(  7 -  7) =      9.92321  eV     1   --> A'             
     e(  8 -  8) =     10.95741  eV     1   --> A''            

 **************************************************************************

 **************************************************************************

                    xk=(  -0.28000,   0.14000,   0.00000  )

     Band symmetry, C_s (m)     point group:

     e(  1 -  1) =     -5.37849  eV     1   --> A'             
     e(  2 -  2) =      3.84026  eV     1   --> A''            
     e(  3 -  3) =      4.79273  eV     1   --> A'             
     e(  4 -  4) =      5.52306  eV     1   --> A''            
     e(  5 -  5) =      8.39393  eV     1   --> A'             
     e(  6 -  6) =      9.33139  eV     1   --> A''            
     e(  7 -  7) =      9.78661  eV     1   --> A'             
     e(  8 -  8) =     10.93535  eV     1   --> A''            

 **************************************************************************

 **************************************************************************

                    xk=(  -0.26000,   0.13000,   0.00000  )

     Band symmetry, C_s (m)     point group:

     e(  1 -  1) =     -5.43584  eV     1   --> A'             
     e(  2 -  2) =      4.04070  eV     1   --> A''            
     e(  3 -  3) =      4.92357  eV     1   --> A'             
     e(  4 -  4) =      5.58648  eV     1   --> A''            
     e(  5 -  5) =      8.40655  eV     1   --> A'             
     e(  6 -  6) =      9.26840  eV     1   --> A''            
     e(  7 -  7) =      9.65412  eV     1   --> A'             
     e(  8 -  8) =     10.86569  eV     1   --> A''            

 **************************************************************************

 **************************************************************************

                    xk=(  -0.24000,   0.12000,   0.00000  )

     Band symmetry, C_s (m)     point group:

     e(  1 -  1) =     -5.48907  eV     1   --> A'             
     e(  2 -  2) =      4.24162  eV     1   --> A''            
     e(  3 -  3) =      5.05247  eV     1   --> A'             
     e(  4 -  4) =      5.64667  eV     1   --> A''            
     e(  5 -  5) =      8.42157  eV     1   --> A'             
     e(  6 -  6) =      9.20532  eV     1   --> A''            
     e(  7 -  7) =      9.52604  eV     1   --> A'             
     e(  8 -  8) =     10.75154  eV     1   --> A''            

 **************************************************************************

 **************************************************************************

                    xk=(  -0.22000,   0.11000,   0.00000  )

     Band symmetry, C_s (m)     point group:

     e(  1 -  1) =     -5.53813  eV     1   --> A'             
     e(  2 -  2) =      4.44232  eV     1   --> A''            
     e(  3 -  3) =      5.17867  eV     1   --> A'             
     e(  4 -  4) =      5.70348  eV     1   --> A''            
     e(  5 -  5) =      8.43860  eV     1   --> A'             
     e(  6 -  6) =      9.14269  eV     1   --> A''            
     e(  7 -  7) =      9.40271  eV     1   --> A'             
     e(  8 -  8) =     10.60250  eV     1   --> A''            

 **************************************************************************

 **************************************************************************

                    xk=(  -0.20000,   0.10000,   0.00000  )

     Band symmetry, C_s (m)     point group:

     e(  1 -  1) =     -5.58302  eV     1   --> A'             
     e(  2 -  2) =      4.64196  eV     1   --> A''            
     e(  3 -  3) =      5.30127  eV     1   --> A'             
     e(  4 -  4) =      5.75674  eV     1   --> A''            
     e(  5 -  5) =      8.45718  eV     1   --> A'             
     e(  6 -  6) =      9.08099  eV     1   --> A''            
     e(  7 -  7) =      9.28461  eV     1   --> A'             
     e(  8 -  8) =     10.42996  eV     1   --> A''            

 **************************************************************************

 **************************************************************************

                    xk=(  -0.18000,   0.09000,   0.00000  )

     Band symmetry, C_s (m)     point group:

     e(  1 -  1) =     -5.62369  eV     1   --> A'             
     e(  2 -  2) =      4.83941  eV     1   --> A''            
     e(  3 -  3) =      5.41928  eV     1   --> A'             
     e(  4 -  4) =      5.80623  eV     1   --> A''            
     e(  5 -  5) =      8.47679  eV     1   --> A'             
     e(  6 -  6) =      9.02065  eV     1   --> A''            
     e(  7 -  7) =      9.17231  eV     1   --> A'             
     e(  8 -  8) =     10.24411  eV     1   --> A''            

 **************************************************************************

 **************************************************************************

                    xk=(  -0.16000,   0.08000,   0.00000  )

     Band symmetry, C_s (m)     point group:

     e(  1 -  1) =     -5.66014  eV     1   --> A'             
     e(  2 -  2) =      5.03318  eV     1   --> A''            
     e(  3 -  3) =      5.53154  eV     1   --> A'             
     e(  4 -  4) =      5.85172  eV     1   --> A''            
     e(  5 -  5) =      8.49686  eV     1   --> A'             
     e(  6 -  6) =      8.96187  eV     1   --> A''            
     e(  7 -  7) =      9.06654  eV     1   --> A'             
     e(  8 -  8) =     10.05335  eV     1   --> A''            

 **************************************************************************

 **************************************************************************

                    xk=(  -0.14000,   0.07000,   0.00000  )

     Band symmetry, C_s (m)     point group:

     e(  1 -  1) =     -5.69234  eV     1   --> A'             
     e(  2 -  2) =      5.22130  eV     1   --> A''            
     e(  3 -  3) =      5.63672  eV     1   --> A'             
     e(  4 -  4) =      5.89291  eV     1   --> A''            
     e(  5 -  5) =      8.51679  eV     1   --> A'             
     e(  6 -  6) =      8.90471  eV     1   --> A''            
     e(  7 -  7) =      8.96822  eV     1   --> A'             
     e(  8 -  8) =      9.86481  eV     1   --> A''            

 **************************************************************************

 **************************************************************************

                    xk=(  -0.12000,   0.06000,   0.00000  )

     Band symmetry, C_s (m)     point group:

     e(  1 -  1) =     -5.72031  eV     1   --> A'             
     e(  2 -  2) =      5.40114  eV     1   --> A''            
     e(  3 -  3) =      5.73334  eV     1   --> A'             
     e(  4 -  4) =      5.92951  eV     1   --> A''            
     e(  5 -  5) =      8.53591  eV     1   --> A'             
     e(  6 -  6) =      8.84894  eV     1   --> A''            
     e(  7 -  7) =      8.87845  eV     1   --> A'             
     e(  8 -  8) =      9.68510  eV     1   --> A''            

 **************************************************************************

 **************************************************************************

                    xk=(  -0.10000,   0.05000,   0.00000  )

     Band symmetry, C_s (m)     point group:

     e(  1 -  1) =     -5.74396  eV     1   --> A'             
     e(  2 -  2) =      5.56918  eV     1   --> A''            
     e(  3 -  3) =      5.81973  eV     1   --> A'             
     e(  4 -  4) =      5.96121  eV     1   --> A''            
     e(  5 -  5) =      8.55356  eV     1   --> A'             
     e(  6 -  6) =      8.79420  eV     1   --> A''            
     e(  7 -  7) =      8.79854  eV     1   --> A'             
     e(  8 -  8) =      9.52092  eV     1   --> A''            

 **************************************************************************

 **************************************************************************

                    xk=(  -0.08000,   0.04000,   0.00000  )

     Band symmetry, C_s (m)     point group:

     e(  1 -  1) =     -5.76335  eV     1   --> A'             
     e(  2 -  2) =      5.72079  eV     1   --> A''            
     e(  3 -  3) =      5.89408  eV     1   --> A'             
     e(  4 -  4) =      5.98768  eV     1   --> A''            
     e(  5 -  5) =      8.56909  eV     1   --> A'             
     e(  6 -  6) =      8.72997  eV     1   --> A'             
     e(  7 -  7) =      8.74034  eV     1   --> A''            
     e(  8 -  8) =      9.37904  eV     1   --> A''            

 **************************************************************************

 **************************************************************************

                    xk=(  -0.06000,   0.03000,   0.00000  )

     Band symmetry, C_s (m)     point group:

     e(  1 -  1) =     -5.77845  eV     1   --> A'             
     e(  2 -  2) =      5.85011  eV     1   --> A''            
     e(  3 -  3) =      5.95451  eV     1   --> A'             
     e(  4 -  4) =      6.00863  eV     1   --> A''            
     e(  5 -  5) =      8.58190  eV     1   --> A'             
     e(  6 -  6) =      8.67434  eV     1   --> A'             
     e(  7 -  7) =      8.68863  eV     1   --> A''            
     e(  8 -  8) =      9.26565  eV     1   --> A''            

 **************************************************************************

 **************************************************************************

                    xk=(  -0.04000,   0.02000,   0.00000  )

     Band symmetry, C_s (m)     point group:

     e(  1 -  1) =     -5.78924  eV     1   --> A'             
     e(  2 -  2) =      5.95023  eV     1   --> A''            
     e(  3 -  3) =      5.99924  eV     1   --> A'             
     e(  4 -  4) =      6.02380  eV     1   --> A''            
     e(  5 -  5) =      8.59146  eV     1   --> A'             
     e(  6 -  6) =      8.63321  eV     1   --> A'             
     e(  7 -  7) =      8.64319  eV     1   --> A''            
     e(  8 -  8) =      9.18463  eV     1   --> A''            

 **************************************************************************

 **************************************************************************

                    xk=(  -0.02000,   0.01000,   0.00000  )

     Band symmetry, C_s (m)     point group:

     e(  1 -  1) =     -5.79571  eV     1   --> A'             
     e(  2 -  2) =      6.01407  eV     1   --> A''            
     e(  3 -  3) =      6.02677  eV     1   --> A'             
     e(  4 -  4) =      6.03299  eV     1   --> A''            
     e(  5 -  5) =      8.59737  eV     1   --> A'             
     e(  6 -  6) =      8.60791  eV     1   --> A'             
     e(  7 -  7) =      8.61107  eV     1   --> A''            
     e(  8 -  8) =      9.13681  eV     1   --> A''            

 **************************************************************************

 **************************************************************************

                    xk=(   0.00000,   0.00000,   0.00000  )

     point group O_h (m-3m) 
     there are 10 classes
     the character table:

       E     8C3   3C2   6C4   6C2'  i     8S6   3s_h  6S4   6s_d 
A_1g   1.00  1.00  1.00  1.00  1.00  1.00  1.00  1.00  1.00  1.00
A_2g   1.00  1.00  1.00 -1.00 -1.00  1.00  1.00  1.00 -1.00 -1.00
E_g    2.00 -1.00  2.00  0.00  0.00  2.00 -1.00  2.00  0.00  0.00
T_1g   3.00  0.00 -1.00  1.00 -1.00  3.00  0.00 -1.00  1.00 -1.00
T_2g   3.00  0.00 -1.00 -1.00  1.00  3.00  0.00 -1.00 -1.00  1.00
A_1u   1.00  1.00  1.00  1.00  1.00 -1.00 -1.00 -1.00 -1.00 -1.00
A_2u   1.00  1.00  1.00 -1.00 -1.00 -1.00 -1.00 -1.00  1.00  1.00
E_u    2.00 -1.00  2.00  0.00  0.00 -2.00  1.00 -2.00  0.00  0.00
T_1u   3.00  0.00 -1.00  1.00 -1.00 -3.00  0.00  1.00 -1.00  1.00
T_2u   3.00  0.00 -1.00 -1.00  1.00 -3.00  0.00  1.00  1.00 -1.00

     the symmetry operations in each class and the name of the first element:

     E        1
                                                                 
     8C3     17   19   20   18   24   21   22   23
                                                                 
     3C2      2    4    3
                                                                 
     6C4      7    8   15   16   12   11
                                                                 
     6C2'     5    6   14   13   10    9
                                                                 
     i       25
                                                                 
     8S6     41   43   44   42   48   45   46   47
                                                                 
     3s_h    26   28   27
                                                                 
     6S4     31   32   39   40   36   35
                                                                 
     6s_d    29   30   38   37   34   33
                                                                 

     Band symmetry, O_h (m-3m)  point group:

     e(  1 -  1) =     -5.79787  eV     1   --> A_1g G_1   G_1+
     e(  2 -  4) =      6.03607  eV     3   --> T_2g G_25' G_5+
     e(  5 -  7) =      8.59936  eV     3   --> T_1u G_15  G_4-
     e(  8 -  8) =      9.12110  eV     1   --> A_2u G_2'  G_2-

 **************************************************************************

     BANDS        :      5.49s CPU      5.41s WALL


   This run was terminated on:  14:38:53   3Dec2023            

=------------------------------------------------------------------------------=
   JOB DONE.
=------------------------------------------------------------------------------=
