
     Program PWSCF v.6.6 starts on  3Dec2023 at 13:58:35 

     This program is part of the open-source Quantum ESPRESSO suite
     for quantum simulation of materials; please cite
         "P. Giannozzi et al., J. Phys.:Condens. Matter 21 395502 (2009);
         "P. Giannozzi et al., J. Phys.:Condens. Matter 29 465901 (2017);
          URL http://www.quantum-espresso.org", 
     in publications or presentations arising from this work. More details at
     http://www.quantum-espresso.org/quote

     Parallel version (MPI), running on     8 processors

     MPI processes distributed on     1 nodes
     R & G space division:  proc/nbgrp/npool/nimage =       8
     Fft bands division:     nmany     =       1
     Waiting for input...
     Reading input from standard input

     Current dimensions of program PWSCF are:
     Max number of different atomic species (ntypx) = 10
     Max number of k-points (npk) =  40000
     Max angular momentum in pseudopotentials (lmaxx) =  3

     Atomic positions and unit cell read from directory:
     /Users/virgrammid/Desktop/Lab/al/tmp/al.save/

     file Al.pbe-n-kjpaw_psl.1.0.0.UPF: wavefunction(s)  3S 3P renormalized

     Subspace diagonalization in iterative solution of the eigenvalue problem:
     one sub-group per band group will be used
     scalapack distributed-memory algorithm (size of sub-group:  2*  2 procs)


     Parallelization info
     --------------------
     sticks:   dense  smooth     PW     G-vecs:    dense   smooth      PW
     Min          39      39     13                  479      479      90
     Max          40      40     14                  484      484      91
     Sum         313     313    109                 3839     3839     725



     bravais-lattice index     =            2
     lattice parameter (alat)  =       7.6311  a.u.
     unit-cell volume          =     111.0959 (a.u.)^3
     number of atoms/cell      =            1
     number of atomic types    =            1
     number of electrons       =         3.00
     number of Kohn-Sham states=            6
     kinetic-energy cutoff     =      40.0000  Ry
     charge density cutoff     =     160.0000  Ry
     Exchange-correlation= SLA PW PBX PBC
                           (   1   4   3   4   0   0   0)

     celldm(1)=   7.631080  celldm(2)=   0.000000  celldm(3)=   0.000000
     celldm(4)=   0.000000  celldm(5)=   0.000000  celldm(6)=   0.000000

     crystal axes: (cart. coord. in units of alat)
               a(1) = (  -0.500000   0.000000   0.500000 )  
               a(2) = (   0.000000   0.500000   0.500000 )  
               a(3) = (  -0.500000   0.500000   0.000000 )  

     reciprocal axes: (cart. coord. in units 2 pi/alat)
               b(1) = ( -1.000000 -1.000000  1.000000 )  
               b(2) = (  1.000000  1.000000  1.000000 )  
               b(3) = ( -1.000000  1.000000 -1.000000 )  


     PseudoPot. # 1 for Al read from file:
     /Users/virgrammid/Desktop/Lab/al/pseudo/Al.pbe-n-kjpaw_psl.1.0.0.UPF
     MD5 check sum: 502b6b27b9c6270cab5dd1084b96fa6d
     Pseudo is Projector augmented-wave + core cor, Zval =  3.0
     Generated using "atomic" code by A. Dal Corso v.6.3
     Shape of augmentation charge: PSQ
     Using radial grid of 1135 points,  6 beta functions with: 
                l(1) =   0
                l(2) =   0
                l(3) =   1
                l(4) =   1
                l(5) =   2
                l(6) =   2
     Q(r) pseudized with 0 coefficients 


     atomic species   valence    mass     pseudopotential
        Al             3.00    26.98000     Al( 1.00)

     48 Sym. Ops., with inversion, found



   Cartesian axes

     site n.     atom                  positions (alat units)
         1           Al  tau(   1) = (   0.0000000   0.0000000   0.0000000  )

     number of k points=   201  Marzari-Vanderbilt smearing, width (Ry)=  0.0500

     Number of k-points >= 100: set verbosity='high' to print them.

     Dense  grid:     3839 G-vectors     FFT dimensions: (  24,  24,  24)

     Estimated max dynamical RAM per process >       2.59 MB

     Estimated total dynamical RAM >      20.70 MB

     The potential is recalculated from file :
     /Users/virgrammid/Desktop/Lab/al/tmp/al.save/charge-density

     Starting wfcs are    4 randomized atomic wfcs +    2 random wfcs
     Checking if some PAW data can be deallocated... 

     Band Structure Calculation
     CG style diagonalization
     c_bands:  1 eigenvalues not converged
     c_bands:  1 eigenvalues not converged
     c_bands:  1 eigenvalues not converged
     c_bands:  1 eigenvalues not converged
     c_bands:  1 eigenvalues not converged
     c_bands:  1 eigenvalues not converged
     c_bands:  1 eigenvalues not converged
     c_bands:  1 eigenvalues not converged
     c_bands:  1 eigenvalues not converged
     c_bands:  1 eigenvalues not converged
     c_bands:  1 eigenvalues not converged
     c_bands:  1 eigenvalues not converged
     c_bands:  1 eigenvalues not converged
     c_bands:  1 eigenvalues not converged
     c_bands:  1 eigenvalues not converged
     c_bands:  1 eigenvalues not converged
     c_bands:  1 eigenvalues not converged
     c_bands:  1 eigenvalues not converged
     c_bands:  1 eigenvalues not converged
     c_bands:  1 eigenvalues not converged
     c_bands:  1 eigenvalues not converged
     c_bands:  1 eigenvalues not converged
     c_bands:  1 eigenvalues not converged
     c_bands:  2 eigenvalues not converged

     ethr =  3.33E-12,  avg # of iterations = 45.8

     total cpu time spent up to now is       71.4 secs

     End of band structure calculation

     Number of k-points >= 100: set verbosity='high' to print the bands.

     the Fermi energy is     8.3873 ev
     (compare with:     7.9341 eV, computed in scf)

     Writing output data file /Users/virgrammid/Desktop/Lab/al/tmp/al.save/

     init_run     :      0.68s CPU      0.67s WALL (       1 calls)
     electrons    :     18.52s CPU     60.78s WALL (       1 calls)

     Called by init_run:
     wfcinit      :      0.00s CPU      0.00s WALL (       1 calls)
     potinit      :      0.06s CPU      0.08s WALL (       1 calls)
     hinit0       :      0.35s CPU      0.28s WALL (       1 calls)

     Called by electrons:
     c_bands      :     18.52s CPU     60.78s WALL (       1 calls)
     v_of_rho     :      0.00s CPU      0.00s WALL (       1 calls)
     newd         :      0.00s CPU      0.00s WALL (       1 calls)
     PAW_pot      :      0.05s CPU      0.08s WALL (       1 calls)

     Called by c_bands:
     init_us_2    :      0.00s CPU      0.00s WALL (     201 calls)
     ccgdiagg     :     17.71s CPU     58.35s WALL (     740 calls)
     wfcrot       :      0.79s CPU      2.38s WALL (     740 calls)

     Called by *cgdiagg:
     h_psi        :      5.36s CPU     14.91s WALL (   51125 calls)
     s_psi        :      0.22s CPU      0.29s WALL (  101510 calls)

     Called by h_psi:
     h_psi:calbec :      2.09s CPU      7.31s WALL (   51125 calls)
     vloc_psi     :      3.04s CPU      7.18s WALL (   51125 calls)
     add_vuspsi   :      0.14s CPU      0.20s WALL (   51125 calls)
     hs_1psi      :      5.26s CPU     14.53s WALL (   50385 calls)
     s_1psi       :      2.17s CPU      7.18s WALL (   50385 calls)

     General routines
     calbec       :      4.02s CPU     14.06s WALL (  101510 calls)
     fft          :      0.00s CPU      0.01s WALL (      12 calls)
     fftw         :      2.82s CPU      6.84s WALL (  109650 calls)
     davcio       :      0.00s CPU      0.00s WALL (     402 calls)

     Parallel routines
     fft_scatt_xy :      0.19s CPU      0.31s WALL (  109662 calls)
     fft_scatt_yz :      1.68s CPU      5.29s WALL (  109662 calls)

     PWSCF        :     25.27s CPU   1m12.30s WALL


   This run was terminated on:  13:59:47   3Dec2023            

=------------------------------------------------------------------------------=
   JOB DONE.
=------------------------------------------------------------------------------=
