
     Program BANDS v.6.6 starts on  3Dec2023 at 13:59:47 

     This program is part of the open-source Quantum ESPRESSO suite
     for quantum simulation of materials; please cite
         "P. Giannozzi et al., J. Phys.:Condens. Matter 21 395502 (2009);
         "P. Giannozzi et al., J. Phys.:Condens. Matter 29 465901 (2017);
          URL http://www.quantum-espresso.org", 
     in publications or presentations arising from this work. More details at
     http://www.quantum-espresso.org/quote

     Parallel version (MPI), running on     8 processors

     MPI processes distributed on     1 nodes
     R & G space division:  proc/nbgrp/npool/nimage =       8
     Fft bands division:     nmany     =       1

     Reading xml data from directory:

     /Users/virgrammid/Desktop/Lab/al/tmp/al.save/
     file Al.pbe-n-kjpaw_psl.1.0.0.UPF: wavefunction(s)  3S 3P renormalized

     IMPORTANT: XC functional enforced from input :
     Exchange-correlation= PBE
                           (   1   4   3   4   0   0   0)
     Any further DFT definition will be discarded
     Please, verify this is what you really want


     Parallelization info
     --------------------
     sticks:   dense  smooth     PW     G-vecs:    dense   smooth      PW
     Min          39      39     13                  479      479      90
     Max          40      40     14                  484      484      91
     Sum         313     313    109                 3839     3839     725

     Reading collected, re-writing distributed wavefunctions
     high-symmetry point: -0.5000 0.5000 0.5000   x coordinate   0.0000
     high-symmetry point:  0.0000 0.0000 0.0000   x coordinate   0.8660
     high-symmetry point: -1.0000 0.0000 0.0000   x coordinate   1.8660
     high-symmetry point: -1.0000 0.5000 0.0000   x coordinate   2.3660
     high-symmetry point:  0.0000 0.0000 0.0000   x coordinate   3.4841

     Plottable bands (eV) written to file bands.dat.gnu
     Bands written to file bands.dat

 **************************************************************************

                    xk=(  -0.50000,   0.50000,   0.50000  )

     point group D_3d (-3m) 
     there are  6 classes
     the character table:

       E     2C3   3C2'  i     2S6   3s_d 
A_1g   1.00  1.00  1.00  1.00  1.00  1.00
A_2g   1.00  1.00 -1.00  1.00  1.00 -1.00
E_g    2.00 -1.00  0.00  2.00 -1.00  0.00
A_1u   1.00  1.00  1.00 -1.00 -1.00 -1.00
A_2u   1.00  1.00 -1.00 -1.00 -1.00  1.00
E_u    2.00 -1.00  0.00 -2.00  1.00  0.00

     the symmetry operations in each class and the name of the first element:

     E        1
                                                                 
     2C3      5    6
                                                                 
     3C2'     2    4    3
                                                                 
     i        7
                                                                 
     2S6     11   12
                                                                 
     3s_d     8   10    9
                                                                 

     Band symmetry, D_3d (-3m)  point group:

     e(  1 -  1) =      3.32499  eV     1   --> A_2u L_2'      
     e(  2 -  2) =      3.54588  eV     1   --> A_1g L_1       
     e(  3 -  4) =     19.36619  eV     2   --> E_u  L_3'      
     e(  5 -  6) =     19.39355  eV     2   --> E_g  L_3       

 **************************************************************************

 **************************************************************************

                    xk=(  -0.49000,   0.49000,   0.49000  )

     point group C_3v (3m)  
     there are  3 classes
     the character table:

       E     2C3   3s_v 
A_1    1.00  1.00  1.00
A_2    1.00  1.00 -1.00
E      2.00 -1.00  0.00

     the symmetry operations in each class and the name of the first element:

     E        1
                                                                 
     2C3      2    3
                                                                 
     3s_v     4    5    6
                                                                 

     Band symmetry, C_3v (3m)   point group:

     e(  1 -  1) =      3.15473  eV     1   --> A_1  L_1       
     e(  2 -  2) =      3.72092  eV     1   --> A_1  L_1       
     e(  3 -  4) =     19.30298  eV     2   --> E    L_3       
     e(  5 -  6) =     19.46133  eV     2   --> E    L_3       

 **************************************************************************

 **************************************************************************

                    xk=(  -0.48000,   0.48000,   0.48000  )

     Band symmetry, C_3v (3m)   point group:

     e(  1 -  1) =      2.91213  eV     1   --> A_1  L_1       
     e(  2 -  2) =      3.97789  eV     1   --> A_1  L_1       
     e(  3 -  4) =     19.23244  eV     2   --> E    L_3       
     e(  5 -  6) =     19.54559  eV     2   --> E    L_3       

 **************************************************************************

 **************************************************************************

                    xk=(  -0.47000,   0.47000,   0.47000  )

     Band symmetry, C_3v (3m)   point group:

     e(  1 -  1) =      2.66731  eV     1   --> A_1  L_1       
     e(  2 -  2) =      4.24663  eV     1   --> A_1  L_1       
     e(  3 -  4) =     19.16608  eV     2   --> E    L_3       
     e(  5 -  6) =     19.63478  eV     2   --> E    L_3       

 **************************************************************************

 **************************************************************************

                    xk=(  -0.46000,   0.46000,   0.46000  )

     Band symmetry, C_3v (3m)   point group:

     e(  1 -  1) =      2.42547  eV     1   --> A_1  L_1       
     e(  2 -  2) =      4.52197  eV     1   --> A_1  L_1       
     e(  3 -  4) =     19.10420  eV     2   --> E    L_3       
     e(  5 -  6) =     19.72862  eV     2   --> E    L_3       

 **************************************************************************

 **************************************************************************

                    xk=(  -0.45000,   0.45000,   0.45000  )

     Band symmetry, C_3v (3m)   point group:

     e(  1 -  1) =      2.18773  eV     1   --> A_1  L_1       
     e(  2 -  2) =      4.80276  eV     1   --> A_1  L_1       
     e(  3 -  4) =     19.04684  eV     2   --> E    L_3       
     e(  5 -  6) =     19.82705  eV     2   --> E    L_3       

 **************************************************************************

 **************************************************************************

                    xk=(  -0.44000,   0.44000,   0.44000  )

     Band symmetry, C_3v (3m)   point group:

     e(  1 -  1) =      1.95450  eV     1   --> A_1  L_1       
     e(  2 -  2) =      5.08860  eV     1   --> A_1  L_1       
     e(  3 -  4) =     18.99403  eV     2   --> E    L_3       
     e(  5 -  6) =     19.93003  eV     2   --> E    L_3       

 **************************************************************************

 **************************************************************************

                    xk=(  -0.43000,   0.43000,   0.43000  )

     Band symmetry, C_3v (3m)   point group:

     e(  1 -  1) =      1.72596  eV     1   --> A_1  L_1       
     e(  2 -  2) =      5.37929  eV     1   --> A_1  L_1       
     e(  3 -  4) =     18.94579  eV     2   --> E    L_3       
     e(  5 -  6) =     20.03755  eV     2   --> E    L_3       

 **************************************************************************

 **************************************************************************

                    xk=(  -0.42000,   0.42000,   0.42000  )

     Band symmetry, C_3v (3m)   point group:

     e(  1 -  1) =      1.50223  eV     1   --> A_1  L_1       
     e(  2 -  2) =      5.67474  eV     1   --> A_1  L_1       
     e(  3 -  4) =     18.90210  eV     2   --> E    L_3       
     e(  5 -  6) =     20.14958  eV     2   --> E    L_3       

 **************************************************************************

 **************************************************************************

                    xk=(  -0.41000,   0.41000,   0.41000  )

     Band symmetry, C_3v (3m)   point group:

     e(  1 -  1) =      1.28335  eV     1   --> A_1  L_1       
     e(  2 -  2) =      5.97485  eV     1   --> A_1  L_1       
     e(  3 -  4) =     18.86296  eV     2   --> E    L_3       
     e(  5 -  6) =     20.26610  eV     2   --> E    L_3       

 **************************************************************************

 **************************************************************************

                    xk=(  -0.40000,   0.40000,   0.40000  )

     Band symmetry, C_3v (3m)   point group:

     e(  1 -  1) =      1.06940  eV     1   --> A_1  L_1       
     e(  2 -  2) =      6.27958  eV     1   --> A_1  L_1       
     e(  3 -  4) =     18.82838  eV     2   --> E    L_3       
     e(  5 -  6) =     20.38710  eV     2   --> E    L_3       

 **************************************************************************

 **************************************************************************

                    xk=(  -0.39000,   0.39000,   0.39000  )

     Band symmetry, C_3v (3m)   point group:

     e(  1 -  1) =      0.86041  eV     1   --> A_1  L_1       
     e(  2 -  2) =      6.58888  eV     1   --> A_1  L_1       
     e(  3 -  4) =     18.79836  eV     2   --> E    L_3       
     e(  5 -  6) =     20.51254  eV     2   --> E    L_3       

 **************************************************************************

 **************************************************************************

                    xk=(  -0.38000,   0.38000,   0.38000  )

     Band symmetry, C_3v (3m)   point group:

     e(  1 -  1) =      0.65640  eV     1   --> A_1  L_1       
     e(  2 -  2) =      6.90270  eV     1   --> A_1  L_1       
     e(  3 -  4) =     18.77288  eV     2   --> E    L_3       
     e(  5 -  6) =     20.64240  eV     2   --> E    L_3       

 **************************************************************************

 **************************************************************************

                    xk=(  -0.37000,   0.37000,   0.37000  )

     Band symmetry, C_3v (3m)   point group:

     e(  1 -  1) =      0.45740  eV     1   --> A_1  L_1       
     e(  2 -  2) =      7.22101  eV     1   --> A_1  L_1       
     e(  3 -  4) =     18.75195  eV     2   --> E    L_3       
     e(  5 -  6) =     20.77663  eV     2   --> E    L_3       

 **************************************************************************

 **************************************************************************

                    xk=(  -0.36000,   0.36000,   0.36000  )

     Band symmetry, C_3v (3m)   point group:

     e(  1 -  1) =      0.26344  eV     1   --> A_1  L_1       
     e(  2 -  2) =      7.54376  eV     1   --> A_1  L_1       
     e(  3 -  4) =     18.73555  eV     2   --> E    L_3       
     e(  5 -  6) =     20.91519  eV     2   --> E    L_3       

 **************************************************************************

 **************************************************************************

                    xk=(  -0.35000,   0.35000,   0.35000  )

     Band symmetry, C_3v (3m)   point group:

     e(  1 -  1) =      0.07454  eV     1   --> A_1  L_1       
     e(  2 -  2) =      7.87092  eV     1   --> A_1  L_1       
     e(  3 -  4) =     18.72369  eV     2   --> E    L_3       
     e(  5 -  6) =     21.05804  eV     2   --> E    L_3       

 **************************************************************************

 **************************************************************************

                    xk=(  -0.34000,   0.34000,   0.34000  )

     Band symmetry, C_3v (3m)   point group:

     e(  1 -  1) =     -0.10929  eV     1   --> A_1  L_1       
     e(  2 -  2) =      8.20244  eV     1   --> A_1  L_1       
     e(  3 -  4) =     18.71635  eV     2   --> E    L_3       
     e(  5 -  6) =     21.20511  eV     2   --> E    L_3       

 **************************************************************************

 **************************************************************************

                    xk=(  -0.33000,   0.33000,   0.33000  )

     Band symmetry, C_3v (3m)   point group:

     e(  1 -  1) =     -0.28803  eV     1   --> A_1  L_1       
     e(  2 -  2) =      8.53829  eV     1   --> A_1  L_1       
     e(  3 -  4) =     18.71351  eV     2   --> E    L_3       
     e(  5 -  6) =     21.35633  eV     2   --> E    L_3       

 **************************************************************************

 **************************************************************************

                    xk=(  -0.32000,   0.32000,   0.32000  )

     Band symmetry, C_3v (3m)   point group:

     e(  1 -  1) =     -0.46162  eV     1   --> A_1  L_1       
     e(  2 -  2) =      8.87841  eV     1   --> A_1  L_1       
     e(  3 -  4) =     18.71519  eV     2   --> E    L_3       
     e(  5 -  6) =     21.51160  eV     2   --> E    L_3       

 **************************************************************************

 **************************************************************************

                    xk=(  -0.31000,   0.31000,   0.31000  )

     Band symmetry, C_3v (3m)   point group:

     e(  1 -  1) =     -0.63008  eV     1   --> A_1  L_1       
     e(  2 -  2) =      9.22276  eV     1   --> A_1  L_1       
     e(  3 -  4) =     18.72137  eV     2   --> E    L_3       
     e(  5 -  6) =     21.67082  eV     2   --> E    L_3       

 **************************************************************************

 **************************************************************************

                    xk=(  -0.30000,   0.30000,   0.30000  )

     Band symmetry, C_3v (3m)   point group:

     e(  1 -  1) =     -0.79337  eV     1   --> A_1  L_1       
     e(  2 -  2) =      9.57128  eV     1   --> A_1  L_1       
     e(  3 -  4) =     18.73203  eV     2   --> E    L_3       
     e(  5 -  6) =     21.83385  eV     2   --> E    L_3       

 **************************************************************************

 **************************************************************************

                    xk=(  -0.29000,   0.29000,   0.29000  )

     Band symmetry, C_3v (3m)   point group:

     e(  1 -  1) =     -0.95149  eV     1   --> A_1  L_1       
     e(  2 -  2) =      9.92392  eV     1   --> A_1  L_1       
     e(  3 -  4) =     18.74716  eV     2   --> E    L_3       
     e(  5 -  6) =     22.00052  eV     2   --> E    L_3       

 **************************************************************************

 **************************************************************************

                    xk=(  -0.28000,   0.28000,   0.28000  )

     Band symmetry, C_3v (3m)   point group:

     e(  1 -  1) =     -1.10441  eV     1   --> A_1  L_1       
     e(  2 -  2) =     10.28063  eV     1   --> A_1  L_1       
     e(  3 -  4) =     18.76676  eV     2   --> E    L_3       
     e(  5 -  6) =     22.17062  eV     2   --> E    L_3       

 **************************************************************************

 **************************************************************************

                    xk=(  -0.27000,   0.27000,   0.27000  )

     Band symmetry, C_3v (3m)   point group:

     e(  1 -  1) =     -1.25212  eV     1   --> A_1  L_1       
     e(  2 -  2) =     10.64134  eV     1   --> A_1  L_1       
     e(  3 -  4) =     18.79079  eV     2   --> E    L_3       
     e(  5 -  5) =     22.29339  eV     1   --> A_1  L_1       
     e(  6 -  6) =     22.34387  eV     1   -->   ?

 **************************************************************************

 **************************************************************************

                    xk=(  -0.26000,   0.26000,   0.26000  )

     Band symmetry, C_3v (3m)   point group:

     e(  1 -  1) =     -1.39461  eV     1   --> A_1  L_1       
     e(  2 -  2) =     11.00599  eV     1   --> A_1  L_1       
     e(  3 -  4) =     18.81924  eV     2   --> E    L_3       
     e(  5 -  5) =     22.30661  eV     1   --> A_1  L_1       
     e(  6 -  6) =     22.51990  eV     1   -->   ?

 **************************************************************************

 **************************************************************************

                    xk=(  -0.25000,   0.25000,   0.25000  )

     Band symmetry, C_3v (3m)   point group:

     e(  1 -  1) =     -1.53185  eV     1   --> A_1  L_1       
     e(  2 -  2) =     11.37450  eV     1   --> A_1  L_1       
     e(  3 -  4) =     18.85210  eV     2   --> E    L_3       
     e(  5 -  5) =     22.32318  eV     1   --> A_1  L_1       
     e(  6 -  6) =     22.69823  eV     1   -->   ?

 **************************************************************************

 **************************************************************************

                    xk=(  -0.24000,   0.24000,   0.24000  )

     Band symmetry, C_3v (3m)   point group:

     e(  1 -  1) =     -1.66384  eV     1   --> A_1  L_1       
     e(  2 -  2) =     11.74679  eV     1   --> A_1  L_1       
     e(  3 -  4) =     18.88933  eV     2   --> E    L_3       
     e(  5 -  5) =     22.34290  eV     1   --> A_1  L_1       
     e(  6 -  6) =     22.87816  eV     1   -->   ?

 **************************************************************************

 **************************************************************************

                    xk=(  -0.23000,   0.23000,   0.23000  )

     Band symmetry, C_3v (3m)   point group:

     e(  1 -  1) =     -1.79055  eV     1   --> A_1  L_1       
     e(  2 -  2) =     12.12277  eV     1   --> A_1  L_1       
     e(  3 -  4) =     18.93091  eV     2   --> E    L_3       
     e(  5 -  5) =     22.36552  eV     1   --> A_1  L_1       
     e(  6 -  6) =     23.05870  eV     1   -->   ?

 **************************************************************************

 **************************************************************************

                    xk=(  -0.22000,   0.22000,   0.22000  )

     Band symmetry, C_3v (3m)   point group:

     e(  1 -  1) =     -1.91198  eV     1   --> A_1  L_1       
     e(  2 -  2) =     12.50234  eV     1   --> A_1  L_1       
     e(  3 -  4) =     18.97680  eV     2   --> E    L_3       
     e(  5 -  5) =     22.39079  eV     1   --> A_1  L_1       
     e(  6 -  6) =     23.23835  eV     1   -->   ?

 **************************************************************************

 **************************************************************************

                    xk=(  -0.21000,   0.21000,   0.21000  )

     Band symmetry, C_3v (3m)   point group:

     e(  1 -  1) =     -2.02811  eV     1   --> A_1  L_1       
     e(  2 -  2) =     12.88538  eV     1   --> A_1  L_1       
     e(  3 -  4) =     19.02696  eV     2   --> E    L_3       
     e(  5 -  5) =     22.41840  eV     1   --> A_1  L_1       
     e(  6 -  6) =     23.41474  eV     1   -->   ?

 **************************************************************************

 **************************************************************************

                    xk=(  -0.20000,   0.20000,   0.20000  )

     Band symmetry, C_3v (3m)   point group:

     e(  1 -  1) =     -2.13893  eV     1   --> A_1  L_1       
     e(  2 -  2) =     13.27177  eV     1   --> A_1  L_1       
     e(  3 -  4) =     19.08135  eV     2   --> E    L_3       
     e(  5 -  5) =     22.44802  eV     1   --> A_1  L_1       
     e(  6 -  6) =     23.58393  eV     1   -->   ?

 **************************************************************************

 **************************************************************************

                    xk=(  -0.19000,   0.19000,   0.19000  )

     Band symmetry, C_3v (3m)   point group:

     e(  1 -  1) =     -2.24442  eV     1   --> A_1  L_1       
     e(  2 -  2) =     13.66137  eV     1   --> A_1  L_1       
     e(  3 -  4) =     19.13991  eV     2   --> E    L_3       
     e(  5 -  5) =     22.47926  eV     1   --> A_1  L_1       
     e(  6 -  6) =     23.73912  eV     1   -->   ?

 **************************************************************************

 **************************************************************************

                    xk=(  -0.18000,   0.18000,   0.18000  )

     Band symmetry, C_3v (3m)   point group:

     e(  1 -  1) =     -2.34458  eV     1   --> A_1  L_1       
     e(  2 -  2) =     14.05400  eV     1   --> A_1  L_1       
     e(  3 -  4) =     19.20256  eV     2   --> E    L_3       
     e(  5 -  5) =     22.51169  eV     1   --> A_1  L_1       
     e(  6 -  6) =     23.86846  eV     1   -->   ?

 **************************************************************************

 **************************************************************************

                    xk=(  -0.17000,   0.17000,   0.17000  )

     Band symmetry, C_3v (3m)   point group:

     e(  1 -  1) =     -2.43939  eV     1   --> A_1  L_1       
     e(  2 -  2) =     14.44949  eV     1   --> A_1  L_1       
     e(  3 -  4) =     19.26924  eV     2   --> E    L_3       
     e(  5 -  5) =     22.54483  eV     1   --> A_1  L_1       
     e(  6 -  6) =     23.95323  eV     1   -->   ?

 **************************************************************************

 **************************************************************************

                    xk=(  -0.16000,   0.16000,   0.16000  )

     Band symmetry, C_3v (3m)   point group:

     e(  1 -  1) =     -2.52884  eV     1   --> A_1  L_1       
     e(  2 -  2) =     14.84759  eV     1   --> A_1  L_1       
     e(  3 -  4) =     19.33983  eV     2   --> E    L_3       
     e(  5 -  5) =     22.57811  eV     1   --> A_1  L_1       
     e(  6 -  6) =     23.97277  eV     1   -->   ?

 **************************************************************************

 **************************************************************************

                    xk=(  -0.15000,   0.15000,   0.15000  )

     Band symmetry, C_3v (3m)   point group:

     e(  1 -  1) =     -2.61292  eV     1   --> A_1  L_1       
     e(  2 -  2) =     15.24807  eV     1   --> A_1  L_1       
     e(  3 -  4) =     19.41420  eV     2   --> E    L_3       
     e(  5 -  5) =     22.61087  eV     1   --> A_1  L_1       
     e(  6 -  6) =     23.92124  eV     1   -->   ?

 **************************************************************************

 **************************************************************************

                    xk=(  -0.14000,   0.14000,   0.14000  )

     Band symmetry, C_3v (3m)   point group:

     e(  1 -  1) =     -2.69162  eV     1   --> A_1  L_1       
     e(  2 -  2) =     15.65060  eV     1   --> A_1  L_1       
     e(  3 -  4) =     19.49221  eV     2   --> E    L_3       
     e(  5 -  5) =     22.64234  eV     1   --> A_1  L_1       
     e(  6 -  6) =     23.81462  eV     1   -->   ?

 **************************************************************************

 **************************************************************************

                    xk=(  -0.13000,   0.13000,   0.13000  )

     Band symmetry, C_3v (3m)   point group:

     e(  1 -  1) =     -2.76494  eV     1   --> A_1  L_1       
     e(  2 -  2) =     16.05481  eV     1   --> A_1  L_1       
     e(  3 -  4) =     19.57366  eV     2   --> E    L_3       
     e(  5 -  5) =     22.67161  eV     1   --> A_1  L_1       
     e(  6 -  6) =     23.67497  eV     1   -->   ?

 **************************************************************************

 **************************************************************************

                    xk=(  -0.12000,   0.12000,   0.12000  )

     Band symmetry, C_3v (3m)   point group:

     e(  1 -  1) =     -2.83286  eV     1   --> A_1  L_1       
     e(  2 -  2) =     16.46025  eV     1   --> A_1  L_1       
     e(  3 -  4) =     19.65827  eV     2   --> E    L_3       
     e(  5 -  5) =     22.69752  eV     1   --> A_1  L_1       
     e(  6 -  6) =     23.51831  eV     1   -->   ?

 **************************************************************************

 **************************************************************************

                    xk=(  -0.11000,   0.11000,   0.11000  )

     Band symmetry, C_3v (3m)   point group:

     e(  1 -  1) =     -2.89538  eV     1   --> A_1  L_1       
     e(  2 -  2) =     16.86634  eV     1   --> A_1  L_1       
     e(  3 -  4) =     19.74574  eV     2   --> E    L_3       
     e(  5 -  5) =     22.71873  eV     1   --> A_1  L_1       
     e(  6 -  6) =     23.35420  eV     1   -->   ?

 **************************************************************************

 **************************************************************************

                    xk=(  -0.10000,   0.10000,   0.10000  )

     Band symmetry, C_3v (3m)   point group:

     e(  1 -  1) =     -2.95248  eV     1   --> A_1  L_1       
     e(  2 -  2) =     17.27238  eV     1   --> A_1  L_1       
     e(  3 -  4) =     19.83562  eV     2   --> E    L_3       
     e(  5 -  5) =     22.73346  eV     1   --> A_1  L_1       
     e(  6 -  6) =     23.18827  eV     1   -->   ?

 **************************************************************************

 **************************************************************************

                    xk=(  -0.09000,   0.09000,   0.09000  )

     Band symmetry, C_3v (3m)   point group:

     e(  1 -  1) =     -3.00416  eV     1   --> A_1  L_1       
     e(  2 -  2) =     17.67742  eV     1   --> A_1  L_1       
     e(  3 -  4) =     19.92734  eV     2   --> E    L_3       
     e(  5 -  5) =     22.73945  eV     1   --> A_1  L_1       
     e(  6 -  6) =     23.02406  eV     1   -->   ?

 **************************************************************************

 **************************************************************************

                    xk=(  -0.08000,   0.08000,   0.08000  )

     Band symmetry, C_3v (3m)   point group:

     e(  1 -  1) =     -3.05042  eV     1   --> A_1  L_1       
     e(  2 -  2) =     18.08022  eV     1   --> A_1  L_1       
     e(  3 -  4) =     20.02012  eV     2   --> E    L_3       
     e(  5 -  5) =     22.73372  eV     1   --> A_1  L_1       
     e(  6 -  6) =     22.86413  eV     1   -->   ?

 **************************************************************************

 **************************************************************************

                    xk=(  -0.07000,   0.07000,   0.07000  )

     Band symmetry, C_3v (3m)   point group:

     e(  1 -  1) =     -3.09126  eV     1   --> A_1  L_1       
     e(  2 -  2) =     18.47906  eV     1   --> A_1  L_1       
     e(  3 -  4) =     20.11289  eV     2   --> E    L_3       
     e(  5 -  5) =     22.71066  eV     1   -->   ?
     e(  6 -  6) =     22.71127  eV     1   -->   ?

 **************************************************************************

 **************************************************************************

                    xk=(  -0.06000,   0.06000,   0.06000  )

     Band symmetry, C_3v (3m)   point group:

     e(  1 -  1) =     -3.12665  eV     1   --> A_1  L_1       
     e(  2 -  2) =     18.87147  eV     1   --> A_1  L_1       
     e(  3 -  4) =     20.20420  eV     2   --> E    L_3       
     e(  5 -  6) =     22.56585  eV     2   --> E    L_3       

 **************************************************************************

 **************************************************************************

                    xk=(  -0.05000,   0.05000,   0.05000  )

     Band symmetry, C_3v (3m)   point group:

     e(  1 -  1) =     -3.15661  eV     1   --> A_1  L_1       
     e(  2 -  2) =     19.25374  eV     1   --> A_1  L_1       
     e(  3 -  4) =     20.29199  eV     2   --> E    L_3       
     e(  5 -  6) =     22.43221  eV     2   --> E    L_3       

 **************************************************************************

 **************************************************************************

                    xk=(  -0.04000,   0.04000,   0.04000  )

     Band symmetry, C_3v (3m)   point group:

     e(  1 -  1) =     -3.18113  eV     1   --> A_1  L_1       
     e(  2 -  2) =     19.61993  eV     1   --> A_1  L_1       
     e(  3 -  4) =     20.37347  eV     2   --> E    L_3       
     e(  5 -  6) =     22.31287  eV     2   --> E    L_3       

 **************************************************************************

 **************************************************************************

                    xk=(  -0.03000,   0.03000,   0.03000  )

     Band symmetry, C_3v (3m)   point group:

     e(  1 -  1) =     -3.20020  eV     1   --> A_1  L_1       
     e(  2 -  2) =     19.95983  eV     1   --> A_1  L_1       
     e(  3 -  4) =     20.44490  eV     2   --> E    L_3       
     e(  5 -  6) =     22.21181  eV     2   --> E    L_3       

 **************************************************************************

 **************************************************************************

                    xk=(  -0.02000,   0.02000,   0.02000  )

     Band symmetry, C_3v (3m)   point group:

     e(  1 -  1) =     -3.21382  eV     1   --> A_1  L_1       
     e(  2 -  2) =     20.25462  eV     1   --> A_1  L_1       
     e(  3 -  4) =     20.50158  eV     2   --> E    L_3       
     e(  5 -  6) =     22.13386  eV     2   --> E    L_3       

 **************************************************************************

 **************************************************************************

                    xk=(  -0.01000,   0.01000,   0.01000  )

     Band symmetry, C_3v (3m)   point group:

     e(  1 -  1) =     -3.22200  eV     1   --> A_1  L_1       
     e(  2 -  2) =     20.46928  eV     1   --> A_1  L_1       
     e(  3 -  4) =     20.53844  eV     2   --> E    L_3       
     e(  5 -  6) =     22.08420  eV     2   -->   ?

 **************************************************************************

 **************************************************************************

                    xk=(   0.00000,   0.00000,   0.00000  )

     point group O_h (m-3m) 
     there are 10 classes
     the character table:

       E     8C3   3C2   6C4   6C2'  i     8S6   3s_h  6S4   6s_d 
A_1g   1.00  1.00  1.00  1.00  1.00  1.00  1.00  1.00  1.00  1.00
A_2g   1.00  1.00  1.00 -1.00 -1.00  1.00  1.00  1.00 -1.00 -1.00
E_g    2.00 -1.00  2.00  0.00  0.00  2.00 -1.00  2.00  0.00  0.00
T_1g   3.00  0.00 -1.00  1.00 -1.00  3.00  0.00 -1.00  1.00 -1.00
T_2g   3.00  0.00 -1.00 -1.00  1.00  3.00  0.00 -1.00 -1.00  1.00
A_1u   1.00  1.00  1.00  1.00  1.00 -1.00 -1.00 -1.00 -1.00 -1.00
A_2u   1.00  1.00  1.00 -1.00 -1.00 -1.00 -1.00 -1.00  1.00  1.00
E_u    2.00 -1.00  2.00  0.00  0.00 -2.00  1.00 -2.00  0.00  0.00
T_1u   3.00  0.00 -1.00  1.00 -1.00 -3.00  0.00  1.00 -1.00  1.00
T_2u   3.00  0.00 -1.00 -1.00  1.00 -3.00  0.00  1.00  1.00 -1.00

     the symmetry operations in each class and the name of the first element:

     E        1
                                                                 
     8C3     17   19   20   18   24   21   22   23
                                                                 
     3C2      2    4    3
                                                                 
     6C4      7    8   15   16   12   11
                                                                 
     6C2'     5    6   14   13   10    9
                                                                 
     i       25
                                                                 
     8S6     41   43   44   42   48   45   46   47
                                                                 
     3s_h    26   28   27
                                                                 
     6S4     31   32   39   40   36   35
                                                                 
     6s_d    29   30   38   37   34   33
                                                                 

     Band symmetry, O_h (m-3m)  point group:

     e(  1 -  1) =     -3.22476  eV     1   --> A_1g G_1   G_1+
     e(  2 -  4) =     20.55122  eV     3   --> T_2g G_25' G_5+
     e(  5 -  6) =     22.06705  eV     2   -->   ?

 **************************************************************************

 **************************************************************************

                    xk=(  -0.02000,   0.00000,   0.00000  )

     point group C_4v (4mm) 
     there are  5 classes
     the character table:

       E     2C4   C2    2s_v  2s_d 
A_1    1.00  1.00  1.00  1.00  1.00
A_2    1.00  1.00  1.00 -1.00 -1.00
B_1    1.00 -1.00  1.00  1.00 -1.00
B_2    1.00 -1.00  1.00 -1.00  1.00
E      2.00  0.00 -2.00  0.00  0.00

     the symmetry operations in each class and the name of the first element:

     E        1
                                                                 
     2C4      3    4
                                                                 
     C2       2
                                                                 
     2s_v     5    6
                                                                 
     2s_d     7    8
                                                                 

     Band symmetry, C_4v (4mm)  point group:

     e(  1 -  1) =     -3.22109  eV     1   --> A_1  G_1 D_1   
     e(  2 -  3) =     20.49455  eV     2   --> E    G_5 D_5   
     e(  4 -  4) =     20.52103  eV     1   --> B_2  G_4 D_2'  
     e(  5 -  5) =     22.05791  eV     1   --> A_1  G_1 D_1   
     e(  6 -  6) =     22.12914  eV     1   -->   ?

 **************************************************************************

 **************************************************************************

                    xk=(  -0.04000,   0.00000,   0.00000  )

     Band symmetry, C_4v (4mm)  point group:

     e(  1 -  1) =     -3.21019  eV     1   --> A_1  G_1 D_1   
     e(  2 -  3) =     20.34594  eV     2   --> E    G_5 D_5   
     e(  4 -  4) =     20.43353  eV     1   --> B_2  G_4 D_2'  
     e(  5 -  5) =     22.03057  eV     1   --> A_1  G_1 D_1   
     e(  6 -  6) =     22.29372  eV     1   -->   ?

 **************************************************************************

 **************************************************************************

                    xk=(  -0.06000,   0.00000,   0.00000  )

     Band symmetry, C_4v (4mm)  point group:

     e(  1 -  1) =     -3.19202  eV     1   --> A_1  G_1 D_1   
     e(  2 -  3) =     20.14340  eV     2   --> E    G_5 D_5   
     e(  4 -  4) =     20.29721  eV     1   --> B_2  G_4 D_2'  
     e(  5 -  5) =     21.98562  eV     1   --> A_1  G_1 D_1   
     e(  6 -  6) =     22.52281  eV     1   -->   ?

 **************************************************************************

 **************************************************************************

                    xk=(  -0.08000,   0.00000,   0.00000  )

     Band symmetry, C_4v (4mm)  point group:

     e(  1 -  1) =     -3.16660  eV     1   --> A_1  G_1 D_1   
     e(  2 -  3) =     19.91359  eV     2   --> E    G_5 D_5   
     e(  4 -  4) =     20.12264  eV     1   --> B_2  G_4 D_2'  
     e(  5 -  5) =     21.92393  eV     1   --> A_1  G_1 D_1   
     e(  6 -  6) =     22.78968  eV     1   -->   ?

 **************************************************************************

 **************************************************************************

                    xk=(  -0.10000,   0.00000,   0.00000  )

     Band symmetry, C_4v (4mm)  point group:

     e(  1 -  1) =     -3.13391  eV     1   --> A_1  G_1 D_1   
     e(  2 -  3) =     19.67094  eV     2   --> E    G_5 D_5   
     e(  4 -  4) =     19.91994  eV     1   --> B_2  G_4 D_2'  
     e(  5 -  5) =     21.84664  eV     1   --> A_1  G_1 D_1   
     e(  6 -  6) =     23.07980  eV     1   -->   ?

 **************************************************************************

 **************************************************************************

                    xk=(  -0.12000,   0.00000,   0.00000  )

     Band symmetry, C_4v (4mm)  point group:

     e(  1 -  1) =     -3.09398  eV     1   --> A_1  G_1 D_1   
     e(  2 -  3) =     19.42301  eV     2   --> E    G_5 D_5   
     e(  4 -  4) =     19.69758  eV     1   --> B_2  G_4 D_2'  
     e(  5 -  5) =     21.75505  eV     1   --> A_1  G_1 D_1   
     e(  6 -  6) =     23.38544  eV     1   -->   ?

 **************************************************************************

 **************************************************************************

                    xk=(  -0.14000,   0.00000,   0.00000  )

     Band symmetry, C_4v (4mm)  point group:

     e(  1 -  1) =     -3.04679  eV     1   --> A_1  G_1 D_1   
     e(  2 -  3) =     19.17396  eV     2   --> E    G_5 D_5   
     e(  4 -  4) =     19.46210  eV     1   --> B_2  G_4 D_2'  
     e(  5 -  5) =     21.65061  eV     1   --> A_1  G_1 D_1   
     e(  6 -  6) =     23.70228  eV     1   -->   ?

 **************************************************************************

 **************************************************************************

                    xk=(  -0.16000,   0.00000,   0.00000  )

     Band symmetry, C_4v (4mm)  point group:

     e(  1 -  1) =     -2.99237  eV     1   --> A_1  G_1 D_1   
     e(  2 -  3) =     18.92617  eV     2   --> E    G_5 D_5   
     e(  4 -  4) =     19.21840  eV     1   --> B_2  G_4 D_2'  
     e(  5 -  5) =     21.53479  eV     1   --> A_1  G_1 D_1   
     e(  6 -  6) =     24.02771  eV     1   -->   ?

 **************************************************************************

 **************************************************************************

                    xk=(  -0.18000,   0.00000,   0.00000  )

     Band symmetry, C_4v (4mm)  point group:

     e(  1 -  1) =     -2.93072  eV     1   --> A_1  G_1 D_1   
     e(  2 -  3) =     18.68111  eV     2   --> E    G_5 D_5   
     e(  4 -  4) =     18.97008  eV     1   --> B_2  G_4 D_2'  
     e(  5 -  5) =     21.40907  eV     1   --> A_1  G_1 D_1   
     e(  6 -  6) =     24.36002  eV     1   -->   ?

 **************************************************************************

 **************************************************************************

                    xk=(  -0.20000,   0.00000,   0.00000  )

     Band symmetry, C_4v (4mm)  point group:

     e(  1 -  1) =     -2.86184  eV     1   --> A_1  G_1 D_1   
     e(  2 -  3) =     18.43974  eV     2   --> E    G_5 D_5   
     e(  4 -  4) =     18.71980  eV     1   --> B_2  G_4 D_2'  
     e(  5 -  5) =     21.27488  eV     1   --> A_1  G_1 D_1   
     e(  6 -  6) =     23.87182  eV     1   --> A_1  G_1 D_1   

 **************************************************************************

 **************************************************************************

                    xk=(  -0.22000,   0.00000,   0.00000  )

     Band symmetry, C_4v (4mm)  point group:

     e(  1 -  1) =     -2.78576  eV     1   --> A_1  G_1 D_1   
     e(  2 -  3) =     18.20269  eV     2   --> E    G_5 D_5   
     e(  4 -  4) =     18.46955  eV     1   --> B_2  G_4 D_2'  
     e(  5 -  5) =     21.13358  eV     1   --> A_1  G_1 D_1   
     e(  6 -  6) =     23.36032  eV     1   --> A_1  G_1 D_1   

 **************************************************************************

 **************************************************************************

                    xk=(  -0.24000,   0.00000,   0.00000  )

     Band symmetry, C_4v (4mm)  point group:

     e(  1 -  1) =     -2.70247  eV     1   --> A_1  G_1 D_1   
     e(  2 -  3) =     17.97041  eV     2   --> E    G_5 D_5   
     e(  4 -  4) =     18.22080  eV     1   --> B_2  G_4 D_2'  
     e(  5 -  5) =     20.98642  eV     1   --> A_1  G_1 D_1   
     e(  6 -  6) =     22.84367  eV     1   --> A_1  G_1 D_1   

 **************************************************************************

 **************************************************************************

                    xk=(  -0.26000,   0.00000,   0.00000  )

     Band symmetry, C_4v (4mm)  point group:

     e(  1 -  1) =     -2.61199  eV     1   --> A_1  G_1 D_1   
     e(  2 -  3) =     17.74323  eV     2   --> E    G_5 D_5   
     e(  4 -  4) =     17.97468  eV     1   --> B_2  G_4 D_2'  
     e(  5 -  5) =     20.83457  eV     1   --> A_1  G_1 D_1   
     e(  6 -  6) =     22.32402  eV     1   --> A_1  G_1 D_1   

 **************************************************************************

 **************************************************************************

                    xk=(  -0.28000,   0.00000,   0.00000  )

     Band symmetry, C_4v (4mm)  point group:

     e(  1 -  1) =     -2.51435  eV     1   --> A_1  G_1 D_1   
     e(  2 -  3) =     17.52137  eV     2   --> E    G_5 D_5   
     e(  4 -  4) =     17.73204  eV     1   --> B_2  G_4 D_2'  
     e(  5 -  5) =     20.67899  eV     1   --> A_1  G_1 D_1   
     e(  6 -  6) =     21.80308  eV     1   --> A_1  G_1 D_1   

 **************************************************************************

 **************************************************************************

                    xk=(  -0.30000,   0.00000,   0.00000  )

     Band symmetry, C_4v (4mm)  point group:

     e(  1 -  1) =     -2.40955  eV     1   --> A_1  G_1 D_1   
     e(  2 -  3) =     17.30501  eV     2   --> E    G_5 D_5   
     e(  4 -  4) =     17.49355  eV     1   --> B_2  G_4 D_2'  
     e(  5 -  5) =     20.52044  eV     1   --> A_1  G_1 D_1   
     e(  6 -  6) =     21.28235  eV     1   --> A_1  G_1 D_1   

 **************************************************************************

 **************************************************************************

                    xk=(  -0.32000,   0.00000,   0.00000  )

     Band symmetry, C_4v (4mm)  point group:

     e(  1 -  1) =     -2.29762  eV     1   --> A_1  G_1 D_1   
     e(  2 -  3) =     17.09430  eV     2   --> E    G_5 D_5   
     e(  4 -  4) =     17.25974  eV     1   --> B_2  G_4 D_2'  
     e(  5 -  5) =     20.35873  eV     1   --> A_1  G_1 D_1   
     e(  6 -  6) =     20.76389  eV     1   --> A_1  G_1 D_1   

 **************************************************************************

 **************************************************************************

                    xk=(  -0.34000,   0.00000,   0.00000  )

     Band symmetry, C_4v (4mm)  point group:

     e(  1 -  1) =     -2.17856  eV     1   --> A_1  G_1 D_1   
     e(  2 -  3) =     16.88934  eV     2   --> E    G_5 D_5   
     e(  4 -  4) =     17.03102  eV     1   --> B_2  G_4 D_2'  
     e(  5 -  5) =     20.17369  eV     1   --> A_1  G_1 D_1   
     e(  6 -  6) =     20.26949  eV     1   --> A_1  G_1 D_1   

 **************************************************************************

 **************************************************************************

                    xk=(  -0.36000,   0.00000,   0.00000  )

     Band symmetry, C_4v (4mm)  point group:

     e(  1 -  1) =     -2.05238  eV     1   --> A_1  G_1 D_1   
     e(  2 -  3) =     16.69022  eV     2   --> E    G_5 D_5   
     e(  4 -  4) =     16.80775  eV     1   --> B_2  G_4 D_2'  
     e(  5 -  5) =     19.71687  eV     1   --> A_1  G_1 D_1   
     e(  6 -  6) =     20.04898  eV     1   --> A_1  G_1 D_1   

 **************************************************************************

 **************************************************************************

                    xk=(  -0.38000,   0.00000,   0.00000  )

     Band symmetry, C_4v (4mm)  point group:

     e(  1 -  1) =     -1.91913  eV     1   --> A_1  G_1 D_1   
     e(  2 -  3) =     16.49701  eV     2   --> E    G_5 D_5   
     e(  4 -  4) =     16.59018  eV     1   --> B_2  G_4 D_2'  
     e(  5 -  5) =     19.20584  eV     1   --> A_1  G_1 D_1   
     e(  6 -  6) =     19.88597  eV     1   --> A_1  G_1 D_1   

 **************************************************************************

 **************************************************************************

                    xk=(  -0.40000,   0.00000,   0.00000  )

     Band symmetry, C_4v (4mm)  point group:

     e(  1 -  1) =     -1.77883  eV     1   --> A_1  G_1 D_1   
     e(  2 -  3) =     16.30975  eV     2   --> E    G_5 D_5   
     e(  4 -  4) =     16.37854  eV     1   --> B_2  G_4 D_2'  
     e(  5 -  5) =     18.69589  eV     1   --> A_1  G_1 D_1   
     e(  6 -  6) =     19.72619  eV     1   --> A_1  G_1 D_1   

 **************************************************************************

 **************************************************************************

                    xk=(  -0.42000,   0.00000,   0.00000  )

     Band symmetry, C_4v (4mm)  point group:

     e(  1 -  1) =     -1.63148  eV     1   --> A_1  G_1 D_1   
     e(  2 -  3) =     16.12850  eV     2   --> E    G_5 D_5   
     e(  4 -  4) =     16.17302  eV     1   --> B_2  G_4 D_2'  
     e(  5 -  5) =     18.18903  eV     1   --> A_1  G_1 D_1   
     e(  6 -  6) =     19.56856  eV     1   --> A_1  G_1 D_1   

 **************************************************************************

 **************************************************************************

                    xk=(  -0.44000,   0.00000,   0.00000  )

     Band symmetry, C_4v (4mm)  point group:

     e(  1 -  1) =     -1.47711  eV     1   --> A_1  G_1 D_1   
     e(  2 -  3) =     15.95328  eV     2   --> E    G_5 D_5   
     e(  4 -  4) =     15.97376  eV     1   --> B_2  G_4 D_2'  
     e(  5 -  5) =     17.68587  eV     1   --> A_1  G_1 D_1   
     e(  6 -  6) =     19.41324  eV     1   --> A_1  G_1 D_1   

 **************************************************************************

 **************************************************************************

                    xk=(  -0.46000,   0.00000,   0.00000  )

     Band symmetry, C_4v (4mm)  point group:

     e(  1 -  1) =     -1.31575  eV     1   --> A_1  G_1 D_1   
     e(  2 -  2) =     15.78091  eV     1   --> B_2  G_4 D_2'  
     e(  3 -  4) =     15.78413  eV     2   --> E    G_5 D_5   
     e(  5 -  5) =     17.18678  eV     1   --> A_1  G_1 D_1   
     e(  6 -  6) =     19.26059  eV     1   --> A_1  G_1 D_1   

 **************************************************************************

 **************************************************************************

                    xk=(  -0.48000,   0.00000,   0.00000  )

     Band symmetry, C_4v (4mm)  point group:

     e(  1 -  1) =     -1.14744  eV     1   --> A_1  G_1 D_1   
     e(  2 -  2) =     15.59456  eV     1   --> B_2  G_4 D_2'  
     e(  3 -  4) =     15.62108  eV     2   --> E    G_5 D_5   
     e(  5 -  5) =     16.69204  eV     1   --> A_1  G_1 D_1   
     e(  6 -  6) =     19.11095  eV     1   --> A_1  G_1 D_1   

 **************************************************************************

 **************************************************************************

                    xk=(  -0.50000,   0.00000,   0.00000  )

     Band symmetry, C_4v (4mm)  point group:

     e(  1 -  1) =     -0.97218  eV     1   --> A_1  G_1 D_1   
     e(  2 -  2) =     15.41481  eV     1   --> B_2  G_4 D_2'  
     e(  3 -  4) =     15.46413  eV     2   --> E    G_5 D_5   
     e(  5 -  5) =     16.20187  eV     1   --> A_1  G_1 D_1   
     e(  6 -  6) =     18.96468  eV     1   --> A_1  G_1 D_1   

 **************************************************************************

 **************************************************************************

                    xk=(  -0.52000,   0.00000,   0.00000  )

     Band symmetry, C_4v (4mm)  point group:

     e(  1 -  1) =     -0.79002  eV     1   --> A_1  G_1 D_1   
     e(  2 -  2) =     15.24174  eV     1   --> B_2  G_4 D_2'  
     e(  3 -  4) =     15.31331  eV     2   --> E    G_5 D_5   
     e(  5 -  5) =     15.71646  eV     1   --> A_1  G_1 D_1   
     e(  6 -  6) =     18.82209  eV     1   --> A_1  G_1 D_1   

 **************************************************************************

 **************************************************************************

                    xk=(  -0.54000,   0.00000,   0.00000  )

     Band symmetry, C_4v (4mm)  point group:

     e(  1 -  1) =     -0.60099  eV     1   --> A_1  G_1 D_1   
     e(  2 -  2) =     15.07542  eV     1   --> B_2  G_4 D_2'  
     e(  3 -  4) =     15.16862  eV     2   --> E    G_5 D_5   
     e(  5 -  5) =     15.23598  eV     1   --> A_1  G_1 D_1   
     e(  6 -  6) =     18.68347  eV     1   --> A_1  G_1 D_1   

 **************************************************************************

 **************************************************************************

                    xk=(  -0.56000,   0.00000,   0.00000  )

     Band symmetry, C_4v (4mm)  point group:

     e(  1 -  1) =     -0.40511  eV     1   --> A_1  G_1 D_1   
     e(  2 -  2) =     14.76059  eV     1   --> A_1  G_1 D_1   
     e(  3 -  3) =     14.91590  eV     1   --> B_2  G_4 D_2'  
     e(  4 -  5) =     15.03008  eV     2   --> E    G_5 D_5   
     e(  6 -  6) =     18.54912  eV     1   --> A_1  G_1 D_1   

 **************************************************************************

 **************************************************************************

                    xk=(  -0.58000,   0.00000,   0.00000  )

     Band symmetry, C_4v (4mm)  point group:

     e(  1 -  1) =     -0.20245  eV     1   --> A_1  G_1 D_1   
     e(  2 -  2) =     14.29040  eV     1   --> A_1  G_1 D_1   
     e(  3 -  3) =     14.76323  eV     1   --> B_2  G_4 D_2'  
     e(  4 -  5) =     14.89770  eV     2   --> E    G_5 D_5   
     e(  6 -  6) =     18.41925  eV     1   --> A_1  G_1 D_1   

 **************************************************************************

 **************************************************************************

                    xk=(  -0.60000,   0.00000,   0.00000  )

     Band symmetry, C_4v (4mm)  point group:

     e(  1 -  1) =      0.00697  eV     1   --> A_1  G_1 D_1   
     e(  2 -  2) =     13.82551  eV     1   --> A_1  G_1 D_1   
     e(  3 -  3) =     14.61747  eV     1   --> B_2  G_4 D_2'  
     e(  4 -  5) =     14.77146  eV     2   --> E    G_5 D_5   
     e(  6 -  6) =     18.29411  eV     1   --> A_1  G_1 D_1   

 **************************************************************************

 **************************************************************************

                    xk=(  -0.62000,   0.00000,   0.00000  )

     Band symmetry, C_4v (4mm)  point group:

     e(  1 -  1) =      0.22310  eV     1   --> A_1  G_1 D_1   
     e(  2 -  2) =     13.36611  eV     1   --> A_1  G_1 D_1   
     e(  3 -  3) =     14.47864  eV     1   --> B_2  G_4 D_2'  
     e(  4 -  5) =     14.65139  eV     2   --> E    G_5 D_5   
     e(  6 -  6) =     18.17392  eV     1   --> A_1  G_1 D_1   

 **************************************************************************

 **************************************************************************

                    xk=(  -0.64000,   0.00000,   0.00000  )

     Band symmetry, C_4v (4mm)  point group:

     e(  1 -  1) =      0.44588  eV     1   --> A_1  G_1 D_1   
     e(  2 -  2) =     12.91229  eV     1   --> A_1  G_1 D_1   
     e(  3 -  3) =     14.34678  eV     1   --> B_2  G_4 D_2'  
     e(  4 -  5) =     14.53749  eV     2   --> E    G_5 D_5   
     e(  6 -  6) =     18.05886  eV     1   --> A_1  G_1 D_1   

 **************************************************************************

 **************************************************************************

                    xk=(  -0.66000,   0.00000,   0.00000  )

     Band symmetry, C_4v (4mm)  point group:

     e(  1 -  1) =      0.67528  eV     1   --> A_1  G_1 D_1   
     e(  2 -  2) =     12.46414  eV     1   --> A_1  G_1 D_1   
     e(  3 -  3) =     14.22195  eV     1   --> B_2  G_4 D_2'  
     e(  4 -  5) =     14.42975  eV     2   --> E    G_5 D_5   
     e(  6 -  6) =     17.94912  eV     1   --> A_1  G_1 D_1   

 **************************************************************************

 **************************************************************************

                    xk=(  -0.68000,   0.00000,   0.00000  )

     Band symmetry, C_4v (4mm)  point group:

     e(  1 -  1) =      0.91119  eV     1   --> A_1  G_1 D_1   
     e(  2 -  2) =     12.02179  eV     1   --> A_1  G_1 D_1   
     e(  3 -  3) =     14.10413  eV     1   --> B_2  G_4 D_2'  
     e(  4 -  5) =     14.32818  eV     2   --> E    G_5 D_5   
     e(  6 -  6) =     17.84486  eV     1   --> A_1  G_1 D_1   

 **************************************************************************

 **************************************************************************

                    xk=(  -0.70000,   0.00000,   0.00000  )

     Band symmetry, C_4v (4mm)  point group:

     e(  1 -  1) =      1.15357  eV     1   --> A_1  G_1 D_1   
     e(  2 -  2) =     11.58534  eV     1   --> A_1  G_1 D_1   
     e(  3 -  3) =     13.99335  eV     1   --> B_2  G_4 D_2'  
     e(  4 -  5) =     14.23278  eV     2   --> E    G_5 D_5   
     e(  6 -  6) =     17.74622  eV     1   --> A_1  G_1 D_1   

 **************************************************************************

 **************************************************************************

                    xk=(  -0.72000,   0.00000,   0.00000  )

     Band symmetry, C_4v (4mm)  point group:

     e(  1 -  1) =      1.40232  eV     1   --> A_1  G_1 D_1   
     e(  2 -  2) =     11.15492  eV     1   --> A_1  G_1 D_1   
     e(  3 -  3) =     13.88964  eV     1   --> B_2  G_4 D_2'  
     e(  4 -  5) =     14.14354  eV     2   --> E    G_5 D_5   
     e(  6 -  6) =     17.65336  eV     1   --> A_1  G_1 D_1   

 **************************************************************************

 **************************************************************************

                    xk=(  -0.74000,   0.00000,   0.00000  )

     Band symmetry, C_4v (4mm)  point group:

     e(  1 -  1) =      1.65731  eV     1   --> A_1  G_1 D_1   
     e(  2 -  2) =     10.73068  eV     1   --> A_1  G_1 D_1   
     e(  3 -  3) =     13.79302  eV     1   --> B_2  G_4 D_2'  
     e(  4 -  5) =     14.06047  eV     2   --> E    G_5 D_5   
     e(  6 -  6) =     17.56639  eV     1   --> A_1  G_1 D_1   

 **************************************************************************

 **************************************************************************

                    xk=(  -0.76000,   0.00000,   0.00000  )

     Band symmetry, C_4v (4mm)  point group:

     e(  1 -  1) =      1.91845  eV     1   --> A_1  G_1 D_1   
     e(  2 -  2) =     10.31278  eV     1   --> A_1  G_1 D_1   
     e(  3 -  3) =     13.70350  eV     1   --> B_2  G_4 D_2'  
     e(  4 -  5) =     13.98356  eV     2   --> E    G_5 D_5   
     e(  6 -  6) =     17.48542  eV     1   --> A_1  G_1 D_1   

 **************************************************************************

 **************************************************************************

                    xk=(  -0.78000,   0.00000,   0.00000  )

     Band symmetry, C_4v (4mm)  point group:

     e(  1 -  1) =      2.18550  eV     1   --> A_1  G_1 D_1   
     e(  2 -  2) =      9.90141  eV     1   --> A_1  G_1 D_1   
     e(  3 -  3) =     13.62110  eV     1   --> B_2  G_4 D_2'  
     e(  4 -  5) =     13.91281  eV     2   --> E    G_5 D_5   
     e(  6 -  6) =     17.41057  eV     1   --> A_1  G_1 D_1   

 **************************************************************************

 **************************************************************************

                    xk=(  -0.80000,   0.00000,   0.00000  )

     Band symmetry, C_4v (4mm)  point group:

     e(  1 -  1) =      2.45826  eV     1   --> A_1  G_1 D_1   
     e(  2 -  2) =      9.49684  eV     1   --> A_1  G_1 D_1   
     e(  3 -  3) =     13.54583  eV     1   --> B_2  G_4 D_2'  
     e(  4 -  5) =     13.84822  eV     2   --> E    G_5 D_5   
     e(  6 -  6) =     17.34193  eV     1   --> A_1  G_1 D_1   

 **************************************************************************

 **************************************************************************

                    xk=(  -0.82000,   0.00000,   0.00000  )

     Band symmetry, C_4v (4mm)  point group:

     e(  1 -  1) =      2.73639  eV     1   --> A_1  G_1 D_1   
     e(  2 -  2) =      9.09940  eV     1   --> A_1  G_1 D_1   
     e(  3 -  3) =     13.47769  eV     1   --> B_2  G_4 D_2'  
     e(  4 -  5) =     13.78979  eV     2   --> E    G_5 D_5   
     e(  6 -  6) =     17.27957  eV     1   --> A_1  G_1 D_1   

 **************************************************************************

 **************************************************************************

                    xk=(  -0.84000,   0.00000,   0.00000  )

     Band symmetry, C_4v (4mm)  point group:

     e(  1 -  1) =      3.01943  eV     1   --> A_1  G_1 D_1   
     e(  2 -  2) =      8.70958  eV     1   --> A_1  G_1 D_1   
     e(  3 -  3) =     13.41671  eV     1   --> B_2  G_4 D_2'  
     e(  4 -  5) =     13.73751  eV     2   --> E    G_5 D_5   
     e(  6 -  6) =     17.22358  eV     1   --> A_1  G_1 D_1   

 **************************************************************************

 **************************************************************************

                    xk=(  -0.86000,   0.00000,   0.00000  )

     Band symmetry, C_4v (4mm)  point group:

     e(  1 -  1) =      3.30669  eV     1   --> A_1  G_1 D_1   
     e(  2 -  2) =      8.32806  eV     1   --> A_1  G_1 D_1   
     e(  3 -  3) =     13.36288  eV     1   --> B_2  G_4 D_2'  
     e(  4 -  5) =     13.69139  eV     2   --> E    G_5 D_5   
     e(  6 -  6) =     17.17403  eV     1   --> A_1  G_1 D_1   

 **************************************************************************

 **************************************************************************

                    xk=(  -0.88000,   0.00000,   0.00000  )

     Band symmetry, C_4v (4mm)  point group:

     e(  1 -  1) =      3.59706  eV     1   --> A_1  G_1 D_1   
     e(  2 -  2) =      7.95599  eV     1   --> A_1  G_1 D_1   
     e(  3 -  3) =     13.31622  eV     1   --> B_2  G_4 D_2'  
     e(  4 -  5) =     13.65143  eV     2   --> E    G_5 D_5   
     e(  6 -  6) =     17.13097  eV     1   --> A_1  G_1 D_1   

 **************************************************************************

 **************************************************************************

                    xk=(  -0.90000,   0.00000,   0.00000  )

     Band symmetry, C_4v (4mm)  point group:

     e(  1 -  1) =      3.88869  eV     1   --> A_1  G_1 D_1   
     e(  2 -  2) =      7.59522  eV     1   --> A_1  G_1 D_1   
     e(  3 -  3) =     13.27672  eV     1   --> B_2  G_4 D_2'  
     e(  4 -  5) =     13.61761  eV     2   --> E    G_5 D_5   
     e(  6 -  6) =     17.09445  eV     1   --> A_1  G_1 D_1   

 **************************************************************************

 **************************************************************************

                    xk=(  -0.92000,   0.00000,   0.00000  )

     Band symmetry, C_4v (4mm)  point group:

     e(  1 -  1) =      4.17822  eV     1   --> A_1  G_1 D_1   
     e(  2 -  2) =      7.24911  eV     1   --> A_1  G_1 D_1   
     e(  3 -  3) =     13.24440  eV     1   --> B_2  G_4 D_2'  
     e(  4 -  5) =     13.58995  eV     2   --> E    G_5 D_5   
     e(  6 -  6) =     17.06451  eV     1   --> A_1  G_1 D_1   

 **************************************************************************

 **************************************************************************

                    xk=(  -0.94000,   0.00000,   0.00000  )

     Band symmetry, C_4v (4mm)  point group:

     e(  1 -  1) =      4.45898  eV     1   --> A_1  G_1 D_1   
     e(  2 -  2) =      6.92435  eV     1   --> A_1  G_1 D_1   
     e(  3 -  3) =     13.21926  eV     1   --> B_2  G_4 D_2'  
     e(  4 -  5) =     13.56843  eV     2   --> E    G_5 D_5   
     e(  6 -  6) =     17.04119  eV     1   --> A_1  G_1 D_1   

 **************************************************************************

 **************************************************************************

                    xk=(  -0.96000,   0.00000,   0.00000  )

     Band symmetry, C_4v (4mm)  point group:

     e(  1 -  1) =      4.71644  eV     1   --> A_1  G_1 D_1   
     e(  2 -  2) =      6.63545  eV     1   --> A_1  G_1 D_1   
     e(  3 -  3) =     13.20130  eV     1   --> B_2  G_4 D_2'  
     e(  4 -  5) =     13.55306  eV     2   --> E    G_5 D_5   
     e(  6 -  6) =     17.02452  eV     1   --> A_1  G_1 D_1   

 **************************************************************************

 **************************************************************************

                    xk=(  -0.98000,   0.00000,   0.00000  )

     Band symmetry, C_4v (4mm)  point group:

     e(  1 -  1) =      4.91735  eV     1   --> A_1  G_1 D_1   
     e(  2 -  2) =      6.41567  eV     1   --> A_1  G_1 D_1   
     e(  3 -  3) =     13.19053  eV     1   --> B_2  G_4 D_2'  
     e(  4 -  5) =     13.54384  eV     2   --> E    G_5 D_5   
     e(  6 -  6) =     17.01451  eV     1   --> A_1  G_1 D_1   

 **************************************************************************

 **************************************************************************

                    xk=(  -1.00000,   0.00000,   0.00000  )

     point group D_4h(4/mmm)
     there are 10 classes
     the character table:

       E     2C4   C2    2C2'  2C2'' i     2S4   s_h   2s_v  2s_d 
A_1g   1.00  1.00  1.00  1.00  1.00  1.00  1.00  1.00  1.00  1.00
A_2g   1.00  1.00  1.00 -1.00 -1.00  1.00  1.00  1.00 -1.00 -1.00
B_1g   1.00 -1.00  1.00  1.00 -1.00  1.00 -1.00  1.00  1.00 -1.00
B_2g   1.00 -1.00  1.00 -1.00  1.00  1.00 -1.00  1.00 -1.00  1.00
E_g    2.00  0.00 -2.00  0.00  0.00  2.00  0.00 -2.00  0.00  0.00
A_1u   1.00  1.00  1.00  1.00  1.00 -1.00 -1.00 -1.00 -1.00 -1.00
A_2u   1.00  1.00  1.00 -1.00 -1.00 -1.00 -1.00 -1.00  1.00  1.00
B_1u   1.00 -1.00  1.00  1.00 -1.00 -1.00  1.00 -1.00 -1.00  1.00
B_2u   1.00 -1.00  1.00 -1.00  1.00 -1.00  1.00 -1.00  1.00 -1.00
E_u    2.00  0.00 -2.00  0.00  0.00 -2.00  0.00  2.00  0.00  0.00

     the symmetry operations in each class and the name of the first element:

     E        1
                                                                 
     2C4      7    8
                                                                 
     C2       4
                                                                 
     2C2'     2    3
                                                                 
     2C2''    5    6
                                                                 
     i        9
                                                                 
     2S4     15   16
                                                                 
     s_h     12
                                                                 
     2s_v    10   11
                                                                 
     2s_d    13   14
                                                                 

     Band symmetry, D_4h(4/mmm) point group:

     e(  1 -  1) =      4.99897  eV     1   --> A_2u X_4' M_4' 
     e(  2 -  2) =      6.32777  eV     1   --> A_1g X_1  M_1  
     e(  3 -  3) =     13.18693  eV     1   --> B_2g X_3  M_3  
     e(  4 -  5) =     13.54077  eV     2   --> E_u  X_5' M_5' 
     e(  6 -  6) =     17.01117  eV     1   --> A_1g X_1  M_1  

 **************************************************************************

 **************************************************************************

                    xk=(  -1.00000,   0.01000,   0.00000  )

     point group C_2v (mm2) 
     there are  4 classes
     the character table:

       E     C2    s_v   s_v' 
A_1    1.00  1.00  1.00  1.00
A_2    1.00  1.00 -1.00 -1.00
B_1    1.00 -1.00  1.00 -1.00
B_2    1.00 -1.00 -1.00  1.00

     the symmetry operations in each class and the name of the first element:

     E        1
                                                                 
     C2       2
                                                                 
     s_v      3
                                                                 
     s_v'     4
                                                                 

     Band symmetry, C_2v (mm2)  point group:

     e(  1 -  1) =      4.99980  eV     1   --> B_1  D_3  S_3  
     e(  2 -  2) =      6.32865  eV     1   --> A_1  D_1  S_1  
     e(  3 -  3) =     13.12080  eV     1   --> B_2  D_4  S_4  
     e(  4 -  4) =     13.53350  eV     1   --> A_1  D_1  S_1  
     e(  5 -  5) =     13.60859  eV     1   --> B_2  D_4  S_4  
     e(  6 -  6) =     17.01979  eV     1   --> A_1  D_1  S_1  

 **************************************************************************

 **************************************************************************

                    xk=(  -1.00000,   0.02000,   0.00000  )

     Band symmetry, C_2v (mm2)  point group:

     e(  1 -  1) =      5.00229  eV     1   --> B_1  D_3  S_3  
     e(  2 -  2) =      6.33128  eV     1   --> A_1  D_1  S_1  
     e(  3 -  3) =     12.98768  eV     1   --> B_2  D_4  S_4  
     e(  4 -  4) =     13.51190  eV     1   --> A_1  D_1  S_1  
     e(  5 -  5) =     13.74674  eV     1   --> B_2  D_4  S_4  
     e(  6 -  6) =     17.04545  eV     1   --> A_1  D_1  S_1  

 **************************************************************************

 **************************************************************************

                    xk=(  -1.00000,   0.03000,   0.00000  )

     Band symmetry, C_2v (mm2)  point group:

     e(  1 -  1) =      5.00644  eV     1   --> B_1  D_3  S_3  
     e(  2 -  2) =      6.33567  eV     1   --> A_1  D_1  S_1  
     e(  3 -  3) =     12.83759  eV     1   --> B_2  D_4  S_4  
     e(  4 -  4) =     13.47660  eV     1   --> A_1  D_1  S_1  
     e(  5 -  5) =     13.90523  eV     1   --> B_2  D_4  S_4  
     e(  6 -  6) =     17.08751  eV     1   --> A_1  D_1  S_1  

 **************************************************************************

 **************************************************************************

                    xk=(  -1.00000,   0.04000,   0.00000  )

     Band symmetry, C_2v (mm2)  point group:

     e(  1 -  1) =      5.01225  eV     1   --> B_1  D_3  S_3  
     e(  2 -  2) =      6.34182  eV     1   --> A_1  D_1  S_1  
     e(  3 -  3) =     12.68285  eV     1   --> B_2  D_4  S_4  
     e(  4 -  4) =     13.42855  eV     1   --> A_1  D_1  S_1  
     e(  5 -  5) =     14.07174  eV     1   --> B_2  D_4  S_4  
     e(  6 -  6) =     17.14503  eV     1   --> A_1  D_1  S_1  

 **************************************************************************

 **************************************************************************

                    xk=(  -1.00000,   0.05000,   0.00000  )

     Band symmetry, C_2v (mm2)  point group:

     e(  1 -  1) =      5.01973  eV     1   --> B_1  D_3  S_3  
     e(  2 -  2) =      6.34972  eV     1   --> A_1  D_1  S_1  
     e(  3 -  3) =     12.52701  eV     1   --> B_2  D_4  S_4  
     e(  4 -  4) =     13.36891  eV     1   --> A_1  D_1  S_1  
     e(  5 -  5) =     14.24270  eV     1   --> B_2  D_4  S_4  
     e(  6 -  6) =     17.21683  eV     1   --> A_1  D_1  S_1  

 **************************************************************************

 **************************************************************************

                    xk=(  -1.00000,   0.06000,   0.00000  )

     Band symmetry, C_2v (mm2)  point group:

     e(  1 -  1) =      5.02886  eV     1   --> B_1  D_3  S_3  
     e(  2 -  2) =      6.35937  eV     1   --> A_1  D_1  S_1  
     e(  3 -  3) =     12.37141  eV     1   --> B_2  D_4  S_4  
     e(  4 -  4) =     13.29899  eV     1   --> A_1  D_1  S_1  
     e(  5 -  5) =     14.41678  eV     1   --> B_2  D_4  S_4  
     e(  6 -  6) =     17.30162  eV     1   --> A_1  D_1  S_1  

 **************************************************************************

 **************************************************************************

                    xk=(  -1.00000,   0.07000,   0.00000  )

     Band symmetry, C_2v (mm2)  point group:

     e(  1 -  1) =      5.03966  eV     1   --> B_1  D_3  S_3  
     e(  2 -  2) =      6.37077  eV     1   --> A_1  D_1  S_1  
     e(  3 -  3) =     12.21665  eV     1   --> B_2  D_4  S_4  
     e(  4 -  4) =     13.22010  eV     1   --> A_1  D_1  S_1  
     e(  5 -  5) =     14.59337  eV     1   --> B_2  D_4  S_4  
     e(  6 -  6) =     17.39808  eV     1   --> A_1  D_1  S_1  

 **************************************************************************

 **************************************************************************

                    xk=(  -1.00000,   0.08000,   0.00000  )

     Band symmetry, C_2v (mm2)  point group:

     e(  1 -  1) =      5.05212  eV     1   --> B_1  D_3  S_3  
     e(  2 -  2) =      6.38392  eV     1   --> A_1  D_1  S_1  
     e(  3 -  3) =     12.06304  eV     1   --> B_2  D_4  S_4  
     e(  4 -  4) =     13.13350  eV     1   --> A_1  D_1  S_1  
     e(  5 -  5) =     14.77218  eV     1   --> B_2  D_4  S_4  
     e(  6 -  6) =     17.50495  eV     1   --> A_1  D_1  S_1  

 **************************************************************************

 **************************************************************************

                    xk=(  -1.00000,   0.09000,   0.00000  )

     Band symmetry, C_2v (mm2)  point group:

     e(  1 -  1) =      5.06624  eV     1   --> B_1  D_3  S_3  
     e(  2 -  2) =      6.39882  eV     1   --> A_1  D_1  S_1  
     e(  3 -  3) =     11.91076  eV     1   --> B_2  D_4  S_4  
     e(  4 -  4) =     13.04037  eV     1   --> A_1  D_1  S_1  
     e(  5 -  5) =     14.95300  eV     1   --> B_2  D_4  S_4  
     e(  6 -  6) =     17.62103  eV     1   --> A_1  D_1  S_1  

 **************************************************************************

 **************************************************************************

                    xk=(  -1.00000,   0.10000,   0.00000  )

     Band symmetry, C_2v (mm2)  point group:

     e(  1 -  1) =      5.08202  eV     1   --> B_1  D_3  S_3  
     e(  2 -  2) =      6.41546  eV     1   --> A_1  D_1  S_1  
     e(  3 -  3) =     11.75992  eV     1   --> B_2  D_4  S_4  
     e(  4 -  4) =     12.94176  eV     1   --> A_1  D_1  S_1  
     e(  5 -  5) =     15.13574  eV     1   --> B_2  D_4  S_4  
     e(  6 -  6) =     17.74528  eV     1   --> A_1  D_1  S_1  

 **************************************************************************

 **************************************************************************

                    xk=(  -1.00000,   0.11000,   0.00000  )

     Band symmetry, C_2v (mm2)  point group:

     e(  1 -  1) =      5.09946  eV     1   --> B_1  D_3  S_3  
     e(  2 -  2) =      6.43383  eV     1   --> A_1  D_1  S_1  
     e(  3 -  3) =     11.61058  eV     1   --> B_2  D_4  S_4  
     e(  4 -  4) =     12.83861  eV     1   --> A_1  D_1  S_1  
     e(  5 -  5) =     15.32032  eV     1   --> B_2  D_4  S_4  
     e(  6 -  6) =     17.87675  eV     1   --> A_1  D_1  S_1  

 **************************************************************************

 **************************************************************************

                    xk=(  -1.00000,   0.12000,   0.00000  )

     Band symmetry, C_2v (mm2)  point group:

     e(  1 -  1) =      5.11857  eV     1   --> B_1  D_3  S_3  
     e(  2 -  2) =      6.45394  eV     1   --> A_1  D_1  S_1  
     e(  3 -  3) =     11.46280  eV     1   --> B_2  D_4  S_4  
     e(  4 -  4) =     12.73174  eV     1   --> A_1  D_1  S_1  
     e(  5 -  5) =     15.50670  eV     1   --> B_2  D_4  S_4  
     e(  6 -  6) =     18.01462  eV     1   --> A_1  D_1  S_1  

 **************************************************************************

 **************************************************************************

                    xk=(  -1.00000,   0.13000,   0.00000  )

     Band symmetry, C_2v (mm2)  point group:

     e(  1 -  1) =      5.13933  eV     1   --> B_1  D_3  S_3  
     e(  2 -  2) =      6.47578  eV     1   --> A_1  D_1  S_1  
     e(  3 -  3) =     11.31660  eV     1   --> B_2  D_4  S_4  
     e(  4 -  4) =     12.62184  eV     1   --> A_1  D_1  S_1  
     e(  5 -  5) =     15.69484  eV     1   --> B_2  D_4  S_4  
     e(  6 -  6) =     18.15817  eV     1   --> A_1  D_1  S_1  

 **************************************************************************

 **************************************************************************

                    xk=(  -1.00000,   0.14000,   0.00000  )

     Band symmetry, C_2v (mm2)  point group:

     e(  1 -  1) =      5.16176  eV     1   --> B_1  D_3  S_3  
     e(  2 -  2) =      6.49935  eV     1   --> A_1  D_1  S_1  
     e(  3 -  3) =     11.17200  eV     1   --> B_2  D_4  S_4  
     e(  4 -  4) =     12.50954  eV     1   --> A_1  D_1  S_1  
     e(  5 -  5) =     15.88471  eV     1   --> B_2  D_4  S_4  
     e(  6 -  6) =     18.30680  eV     1   --> A_1  D_1  S_1  

 **************************************************************************

 **************************************************************************

                    xk=(  -1.00000,   0.15000,   0.00000  )

     Band symmetry, C_2v (mm2)  point group:

     e(  1 -  1) =      5.18586  eV     1   --> B_1  D_3  S_3  
     e(  2 -  2) =      6.52463  eV     1   --> A_1  D_1  S_1  
     e(  3 -  3) =     11.02904  eV     1   --> B_2  D_4  S_4  
     e(  4 -  4) =     12.39536  eV     1   --> A_1  D_1  S_1  
     e(  5 -  5) =     16.07630  eV     1   --> B_2  D_4  S_4  
     e(  6 -  6) =     18.45997  eV     1   --> A_1  D_1  S_1  

 **************************************************************************

 **************************************************************************

                    xk=(  -1.00000,   0.16000,   0.00000  )

     Band symmetry, C_2v (mm2)  point group:

     e(  1 -  1) =      5.21161  eV     1   --> B_1  D_3  S_3  
     e(  2 -  2) =      6.55163  eV     1   --> A_1  D_1  S_1  
     e(  3 -  3) =     10.88770  eV     1   --> B_2  D_4  S_4  
     e(  4 -  4) =     12.27973  eV     1   --> A_1  D_1  S_1  
     e(  5 -  5) =     16.26958  eV     1   --> B_2  D_4  S_4  
     e(  6 -  6) =     18.61723  eV     1   --> A_1  D_1  S_1  

 **************************************************************************

 **************************************************************************

                    xk=(  -1.00000,   0.17000,   0.00000  )

     Band symmetry, C_2v (mm2)  point group:

     e(  1 -  1) =      5.23903  eV     1   --> B_1  D_3  S_3  
     e(  2 -  2) =      6.58032  eV     1   --> A_1  D_1  S_1  
     e(  3 -  3) =     10.74801  eV     1   --> B_2  D_4  S_4  
     e(  4 -  4) =     12.16303  eV     1   --> A_1  D_1  S_1  
     e(  5 -  5) =     16.46455  eV     1   --> B_2  D_4  S_4  
     e(  6 -  6) =     18.77819  eV     1   --> A_1  D_1  S_1  

 **************************************************************************

 **************************************************************************

                    xk=(  -1.00000,   0.18000,   0.00000  )

     Band symmetry, C_2v (mm2)  point group:

     e(  1 -  1) =      5.26811  eV     1   --> B_1  D_3  S_3  
     e(  2 -  2) =      6.61072  eV     1   --> A_1  D_1  S_1  
     e(  3 -  3) =     10.60998  eV     1   --> B_2  D_4  S_4  
     e(  4 -  4) =     12.04562  eV     1   --> A_1  D_1  S_1  
     e(  5 -  5) =     16.66119  eV     1   --> B_2  D_4  S_4  
     e(  6 -  6) =     18.94249  eV     1   --> A_1  D_1  S_1  

 **************************************************************************

 **************************************************************************

                    xk=(  -1.00000,   0.19000,   0.00000  )

     Band symmetry, C_2v (mm2)  point group:

     e(  1 -  1) =      5.29886  eV     1   --> B_1  D_3  S_3  
     e(  2 -  2) =      6.64281  eV     1   --> A_1  D_1  S_1  
     e(  3 -  3) =     10.47361  eV     1   --> B_2  D_4  S_4  
     e(  4 -  4) =     11.92777  eV     1   --> A_1  D_1  S_1  
     e(  5 -  5) =     16.85949  eV     1   --> B_2  D_4  S_4  
     e(  6 -  6) =     19.10985  eV     1   --> A_1  D_1  S_1  

 **************************************************************************

 **************************************************************************

                    xk=(  -1.00000,   0.20000,   0.00000  )

     Band symmetry, C_2v (mm2)  point group:

     e(  1 -  1) =      5.33127  eV     1   --> B_1  D_3  S_3  
     e(  2 -  2) =      6.67657  eV     1   --> A_1  D_1  S_1  
     e(  3 -  3) =     10.33891  eV     1   --> B_2  D_4  S_4  
     e(  4 -  4) =     11.80974  eV     1   --> A_1  D_1  S_1  
     e(  5 -  5) =     17.05944  eV     1   --> B_2  D_4  S_4  
     e(  6 -  6) =     19.28000  eV     1   --> A_1  D_1  S_1  

 **************************************************************************

 **************************************************************************

                    xk=(  -1.00000,   0.21000,   0.00000  )

     Band symmetry, C_2v (mm2)  point group:

     e(  1 -  1) =      5.36534  eV     1   --> B_1  D_3  S_3  
     e(  2 -  2) =      6.71200  eV     1   --> A_1  D_1  S_1  
     e(  3 -  3) =     10.20588  eV     1   --> B_2  D_4  S_4  
     e(  4 -  4) =     11.69172  eV     1   --> A_1  D_1  S_1  
     e(  5 -  5) =     17.26104  eV     1   --> B_2  D_4  S_4  
     e(  6 -  6) =     19.45272  eV     1   --> A_1  D_1  S_1  

 **************************************************************************

 **************************************************************************

                    xk=(  -1.00000,   0.22000,   0.00000  )

     Band symmetry, C_2v (mm2)  point group:

     e(  1 -  1) =      5.40108  eV     1   --> B_1  D_3  S_3  
     e(  2 -  2) =      6.74908  eV     1   --> A_1  D_1  S_1  
     e(  3 -  3) =     10.07452  eV     1   --> B_2  D_4  S_4  
     e(  4 -  4) =     11.57392  eV     1   --> A_1  D_1  S_1  
     e(  5 -  5) =     17.46426  eV     1   --> B_2  D_4  S_4  
     e(  6 -  6) =     19.62778  eV     1   --> A_1  D_1  S_1  

 **************************************************************************

 **************************************************************************

                    xk=(  -1.00000,   0.23000,   0.00000  )

     Band symmetry, C_2v (mm2)  point group:

     e(  1 -  1) =      5.43849  eV     1   --> B_1  D_3  S_3  
     e(  2 -  2) =      6.78780  eV     1   --> A_1  D_1  S_1  
     e(  3 -  3) =      9.94484  eV     1   --> B_2  D_4  S_4  
     e(  4 -  4) =     11.45651  eV     1   --> A_1  D_1  S_1  
     e(  5 -  5) =     17.66912  eV     1   --> B_2  D_4  S_4  
     e(  6 -  6) =     19.80502  eV     1   --> A_1  D_1  S_1  

 **************************************************************************

 **************************************************************************

                    xk=(  -1.00000,   0.24000,   0.00000  )

[...]

                    xk=(  -0.54000,   0.27000,   0.00000  )

     Band symmetry, C_s (m)     point group:

     e(  1 -  1) =      0.04743  eV     1   --> A'             
     e(  2 -  2) =     11.21311  eV     1   --> A''            
     e(  3 -  3) =     12.65901  eV     1   --> A'             
     e(  4 -  4) =     15.86391  eV     1   --> A'             
     e(  5 -  5) =     20.20240  eV     1   --> A''            
     e(  6 -  6) =     21.97053  eV     1   --> A'             

 **************************************************************************

 **************************************************************************

                    xk=(  -0.52000,   0.26000,   0.00000  )

     Band symmetry, C_s (m)     point group:

     e(  1 -  1) =     -0.18784  eV     1   --> A'             
     e(  2 -  2) =     11.49333  eV     1   --> A''            
     e(  3 -  3) =     12.92723  eV     1   --> A'             
     e(  4 -  4) =     16.29227  eV     1   --> A'             
     e(  5 -  5) =     20.14183  eV     1   --> A''            
     e(  6 -  6) =     21.92232  eV     1   --> A'             

 **************************************************************************

 **************************************************************************

                    xk=(  -0.50000,   0.25000,   0.00000  )

     Band symmetry, C_s (m)     point group:

     e(  1 -  1) =     -0.41463  eV     1   --> A'             
     e(  2 -  2) =     11.78184  eV     1   --> A''            
     e(  3 -  3) =     13.20133  eV     1   --> A'             
     e(  4 -  4) =     16.72719  eV     1   --> A'             
     e(  5 -  5) =     20.08904  eV     1   --> A''            
     e(  6 -  6) =     21.88062  eV     1   --> A'             

 **************************************************************************

 **************************************************************************

                    xk=(  -0.48000,   0.24000,   0.00000  )

     Band symmetry, C_s (m)     point group:

     e(  1 -  1) =     -0.63288  eV     1   --> A'             
     e(  2 -  2) =     12.07863  eV     1   --> A''            
     e(  3 -  3) =     13.48114  eV     1   --> A'             
     e(  4 -  4) =     17.16840  eV     1   --> A'             
     e(  5 -  5) =     20.04398  eV     1   --> A''            
     e(  6 -  6) =     21.84550  eV     1   --> A'             

 **************************************************************************

 **************************************************************************

                    xk=(  -0.46000,   0.23000,   0.00000  )

     Band symmetry, C_s (m)     point group:

     e(  1 -  1) =     -0.84256  eV     1   --> A'             
     e(  2 -  2) =     12.38365  eV     1   --> A''            
     e(  3 -  3) =     13.76644  eV     1   --> A'             
     e(  4 -  4) =     17.61560  eV     1   --> A'             
     e(  5 -  5) =     20.00658  eV     1   --> A''            
     e(  6 -  6) =     21.81702  eV     1   --> A'             

 **************************************************************************

 **************************************************************************

                    xk=(  -0.44000,   0.22000,   0.00000  )

     Band symmetry, C_s (m)     point group:

     e(  1 -  1) =     -1.04361  eV     1   --> A'             
     e(  2 -  2) =     12.69686  eV     1   --> A''            
     e(  3 -  3) =     14.05704  eV     1   --> A'             
     e(  4 -  4) =     18.06841  eV     1   --> A'             
     e(  5 -  5) =     19.97677  eV     1   --> A''            
     e(  6 -  6) =     21.79525  eV     1   --> A'             

 **************************************************************************

 **************************************************************************

                    xk=(  -0.42000,   0.21000,   0.00000  )

     Band symmetry, C_s (m)     point group:

     e(  1 -  1) =     -1.23601  eV     1   --> A'             
     e(  2 -  2) =     13.01820  eV     1   --> A''            
     e(  3 -  3) =     14.35268  eV     1   --> A'             
     e(  4 -  4) =     18.52638  eV     1   --> A'             
     e(  5 -  5) =     19.95447  eV     1   --> A''            
     e(  6 -  6) =     21.78031  eV     1   --> A'             

 **************************************************************************

 **************************************************************************

                    xk=(  -0.40000,   0.20000,   0.00000  )

     Band symmetry, C_s (m)     point group:

     e(  1 -  1) =     -1.41970  eV     1   --> A'             
     e(  2 -  2) =     13.34762  eV     1   --> A''            
     e(  3 -  3) =     14.65314  eV     1   --> A'             
     e(  4 -  4) =     18.98884  eV     1   --> A'             
     e(  5 -  5) =     19.93958  eV     1   --> A''            
     e(  6 -  6) =     21.77244  eV     1   --> A'             

 **************************************************************************

 **************************************************************************

                    xk=(  -0.38000,   0.19000,   0.00000  )

     Band symmetry, C_s (m)     point group:

     e(  1 -  1) =     -1.59467  eV     1   --> A'             
     e(  2 -  2) =     13.68502  eV     1   --> A''            
     e(  3 -  3) =     14.95812  eV     1   --> A'             
     e(  4 -  4) =     19.45477  eV     1   --> A'             
     e(  5 -  5) =     19.93197  eV     1   --> A''            
     e(  6 -  6) =     21.77215  eV     1   --> A'             

 **************************************************************************

 **************************************************************************

                    xk=(  -0.36000,   0.18000,   0.00000  )

     Band symmetry, C_s (m)     point group:

     e(  1 -  1) =     -1.76086  eV     1   --> A'             
     e(  2 -  2) =     14.03031  eV     1   --> A''            
     e(  3 -  3) =     15.26734  eV     1   --> A'             
     e(  4 -  4) =     19.92243  eV     1   --> A'             
     e(  5 -  5) =     19.93151  eV     1   --> A''            
     e(  6 -  6) =     21.78061  eV     1   --> A'             

 **************************************************************************

 **************************************************************************

                    xk=(  -0.34000,   0.17000,   0.00000  )

     Band symmetry, C_s (m)     point group:

     e(  1 -  1) =     -1.91826  eV     1   --> A'             
     e(  2 -  2) =     14.38337  eV     1   --> A''            
     e(  3 -  3) =     15.58047  eV     1   --> A'             
     e(  4 -  4) =     19.93801  eV     1   --> A''            
     e(  5 -  5) =     20.38824  eV     1   --> A'             
     e(  6 -  6) =     21.80068  eV     1   --> A'             

 **************************************************************************

 **************************************************************************

                    xk=(  -0.32000,   0.16000,   0.00000  )

     Band symmetry, C_s (m)     point group:

     e(  1 -  1) =     -2.06682  eV     1   --> A'             
     e(  2 -  2) =     14.74406  eV     1   --> A''            
     e(  3 -  3) =     15.89718  eV     1   --> A'             
     e(  4 -  4) =     19.95128  eV     1   --> A''            
     e(  5 -  5) =     20.84314  eV     1   --> A'             
     e(  6 -  6) =     21.84061  eV     1   --> A'             

 **************************************************************************

 **************************************************************************

                    xk=(  -0.30000,   0.15000,   0.00000  )

     Band symmetry, C_s (m)     point group:

     e(  1 -  1) =     -2.20652  eV     1   --> A'             
     e(  2 -  2) =     15.11219  eV     1   --> A''            
     e(  3 -  3) =     16.21707  eV     1   --> A'             
     e(  4 -  4) =     19.97108  eV     1   --> A''            
     e(  5 -  5) =     21.25769  eV     1   --> A'             
     e(  6 -  6) =     21.92883  eV     1   --> A'             

 **************************************************************************

 **************************************************************************

                    xk=(  -0.28000,   0.14000,   0.00000  )

     Band symmetry, C_s (m)     point group:

     e(  1 -  1) =     -2.33734  eV     1   --> A'             
     e(  2 -  2) =     15.48753  eV     1   --> A''            
     e(  3 -  3) =     16.53974  eV     1   --> A'             
     e(  4 -  4) =     19.99709  eV     1   --> A''            
     e(  5 -  5) =     21.54882  eV     1   --> A'             
     e(  6 -  6) =     22.14719  eV     1   --> A'             

 **************************************************************************

 **************************************************************************

                    xk=(  -0.26000,   0.13000,   0.00000  )

     Band symmetry, C_s (m)     point group:

     e(  1 -  1) =     -2.45925  eV     1   --> A'             
     e(  2 -  2) =     15.86981  eV     1   --> A''            
     e(  3 -  3) =     16.86474  eV     1   --> A'             
     e(  4 -  4) =     20.02896  eV     1   --> A''            
     e(  5 -  5) =     21.68320  eV     1   --> A'             
     e(  6 -  6) =     22.52761  eV     1   --> A'             

 **************************************************************************

 **************************************************************************

                    xk=(  -0.24000,   0.12000,   0.00000  )

     Band symmetry, C_s (m)     point group:

     e(  1 -  1) =     -2.57222  eV     1   --> A'             
     e(  2 -  2) =     16.25864  eV     1   --> A''            
     e(  3 -  3) =     17.19154  eV     1   --> A'             
     e(  4 -  4) =     20.06623  eV     1   --> A''            
     e(  5 -  5) =     21.75046  eV     1   --> A'             
     e(  6 -  6) =     22.97862  eV     1   --> A'             

 **************************************************************************

 **************************************************************************

                    xk=(  -0.22000,   0.11000,   0.00000  )

     Band symmetry, C_s (m)     point group:

     e(  1 -  1) =     -2.67623  eV     1   --> A'             
     e(  2 -  2) =     16.65355  eV     1   --> A''            
     e(  3 -  3) =     17.51959  eV     1   --> A'             
     e(  4 -  4) =     20.10836  eV     1   --> A''            
     e(  5 -  5) =     21.79761  eV     1   --> A'             
     e(  6 -  6) =     23.45086  eV     1   --> A'             

 **************************************************************************

 **************************************************************************

                    xk=(  -0.20000,   0.10000,   0.00000  )

     Band symmetry, C_s (m)     point group:

     e(  1 -  1) =     -2.77127  eV     1   --> A'             
     e(  2 -  2) =     17.05393  eV     1   --> A''            
     e(  3 -  3) =     17.84822  eV     1   --> A'             
     e(  4 -  4) =     20.15467  eV     1   --> A''            
     e(  5 -  5) =     21.83770  eV     1   --> A'             
     e(  6 -  6) =     23.92741  eV     1   --> A'             

 **************************************************************************

 **************************************************************************

                    xk=(  -0.18000,   0.09000,   0.00000  )

     Band symmetry, C_s (m)     point group:

     e(  1 -  1) =     -2.85732  eV     1   --> A'             
     e(  2 -  2) =     17.45894  eV     1   --> A''            
     e(  3 -  3) =     18.17665  eV     1   --> A'             
     e(  4 -  4) =     20.20430  eV     1   --> A''            
     e(  5 -  5) =     21.87456  eV     1   --> A'             
     e(  6 -  6) =     23.83268  eV     1   --> A''            

 **************************************************************************

 **************************************************************************

                    xk=(  -0.16000,   0.08000,   0.00000  )

     Band symmetry, C_s (m)     point group:

     e(  1 -  1) =     -2.93435  eV     1   --> A'             
     e(  2 -  2) =     17.86743  eV     1   --> A''            
     e(  3 -  3) =     18.50391  eV     1   --> A'             
     e(  4 -  4) =     20.25623  eV     1   --> A''            
     e(  5 -  5) =     21.90928  eV     1   --> A'             
     e(  6 -  6) =     23.61463  eV     1   --> A''            

 **************************************************************************

 **************************************************************************

                    xk=(  -0.14000,   0.07000,   0.00000  )

     Band symmetry, C_s (m)     point group:

     e(  1 -  1) =     -3.00235  eV     1   --> A'             
     e(  2 -  2) =     18.27779  eV     1   --> A''            
     e(  3 -  3) =     18.82872  eV     1   --> A'             
     e(  4 -  4) =     20.30918  eV     1   --> A''            
     e(  5 -  5) =     21.94193  eV     1   --> A'             
     e(  6 -  6) =     23.40089  eV     1   --> A''            

 **************************************************************************

 **************************************************************************

                    xk=(  -0.12000,   0.06000,   0.00000  )

     Band symmetry, C_s (m)     point group:

     e(  1 -  1) =     -3.06131  eV     1   --> A'             
     e(  2 -  2) =     18.68764  eV     1   --> A''            
     e(  3 -  3) =     19.14934  eV     1   --> A'             
     e(  4 -  4) =     20.36160  eV     1   --> A''            
     e(  5 -  5) =     21.97210  eV     1   --> A'             
     e(  6 -  6) =     23.18919  eV     1   --> A''            

 **************************************************************************

 **************************************************************************

                    xk=(  -0.10000,   0.05000,   0.00000  )

     Band symmetry, C_s (m)     point group:

     e(  1 -  1) =     -3.11122  eV     1   --> A'             
     e(  2 -  2) =     19.09336  eV     1   --> A''            
     e(  3 -  3) =     19.46310  eV     1   --> A'             
     e(  4 -  4) =     20.41166  eV     1   --> A''            
     e(  5 -  5) =     21.99920  eV     1   --> A'             
     e(  6 -  6) =     22.97645  eV     1   --> A''            

 **************************************************************************

 **************************************************************************

                    xk=(  -0.08000,   0.04000,   0.00000  )

     Band symmetry, C_s (m)     point group:

     e(  1 -  1) =     -3.15207  eV     1   --> A'             
     e(  2 -  2) =     19.48903  eV     1   --> A''            
     e(  3 -  3) =     19.76561  eV     1   --> A'             
     e(  4 -  4) =     20.45727  eV     1   --> A''            
     e(  5 -  5) =     22.02257  eV     1   --> A'             
     e(  6 -  6) =     22.75952  eV     1   --> A''            

 **************************************************************************

 **************************************************************************

                    xk=(  -0.06000,   0.03000,   0.00000  )

     Band symmetry, C_s (m)     point group:

     e(  1 -  1) =     -3.18385  eV     1   --> A'             
     e(  2 -  2) =     19.86421  eV     1   --> A''            
     e(  3 -  3) =     20.04892  eV     1   --> A'             
     e(  4 -  4) =     20.49614  eV     1   --> A''            
     e(  5 -  5) =     22.04155  eV     1   --> A'             
     e(  6 -  6) =     22.53800  eV     1   -->   ?

 **************************************************************************

 **************************************************************************

                    xk=(  -0.04000,   0.02000,   0.00000  )

     Band symmetry, C_s (m)     point group:

     e(  1 -  1) =     -3.20655  eV     1   --> A'             
     e(  2 -  2) =     20.19873  eV     1   --> A''            
     e(  3 -  3) =     20.29745  eV     1   --> A'             
     e(  4 -  4) =     20.52600  eV     1   --> A''            
     e(  5 -  5) =     22.05558  eV     1   --> A'             
     e(  6 -  6) =     22.31367  eV     1   -->   ?

 **************************************************************************

 **************************************************************************

                    xk=(  -0.02000,   0.01000,   0.00000  )

     Band symmetry, C_s (m)     point group:

     e(  1 -  1) =     -3.22018  eV     1   --> A'             
     e(  2 -  2) =     20.45138  eV     1   --> A''            
     e(  3 -  3) =     20.48068  eV     1   --> A'             
     e(  4 -  4) =     20.54484  eV     1   --> A''            
     e(  5 -  5) =     22.06418  eV     1   --> A'             
     e(  6 -  6) =     22.13580  eV     1   -->   ?

 **************************************************************************

 **************************************************************************

                    xk=(   0.00000,   0.00000,   0.00000  )

     point group O_h (m-3m) 
     there are 10 classes
     the character table:

       E     8C3   3C2   6C4   6C2'  i     8S6   3s_h  6S4   6s_d 
A_1g   1.00  1.00  1.00  1.00  1.00  1.00  1.00  1.00  1.00  1.00
A_2g   1.00  1.00  1.00 -1.00 -1.00  1.00  1.00  1.00 -1.00 -1.00
E_g    2.00 -1.00  2.00  0.00  0.00  2.00 -1.00  2.00  0.00  0.00
T_1g   3.00  0.00 -1.00  1.00 -1.00  3.00  0.00 -1.00  1.00 -1.00
T_2g   3.00  0.00 -1.00 -1.00  1.00  3.00  0.00 -1.00 -1.00  1.00
A_1u   1.00  1.00  1.00  1.00  1.00 -1.00 -1.00 -1.00 -1.00 -1.00
A_2u   1.00  1.00  1.00 -1.00 -1.00 -1.00 -1.00 -1.00  1.00  1.00
E_u    2.00 -1.00  2.00  0.00  0.00 -2.00  1.00 -2.00  0.00  0.00
T_1u   3.00  0.00 -1.00  1.00 -1.00 -3.00  0.00  1.00 -1.00  1.00
T_2u   3.00  0.00 -1.00 -1.00  1.00 -3.00  0.00  1.00  1.00 -1.00

     the symmetry operations in each class and the name of the first element:

     E        1
                                                                 
     8C3     17   19   20   18   24   21   22   23
                                                                 
     3C2      2    4    3
                                                                 
     6C4      7    8   15   16   12   11
                                                                 
     6C2'     5    6   14   13   10    9
                                                                 
     i       25
                                                                 
     8S6     41   43   44   42   48   45   46   47
                                                                 
     3s_h    26   28   27
                                                                 
     6S4     31   32   39   40   36   35
                                                                 
     6s_d    29   30   38   37   34   33
                                                                 

     Band symmetry, O_h (m-3m)  point group:

     e(  1 -  1) =     -3.22476  eV     1   --> A_1g G_1   G_1+
     e(  2 -  4) =     20.55122  eV     3   --> T_2g G_25' G_5+
     e(  5 -  6) =     22.06705  eV     2   -->   ?

 **************************************************************************

     BANDS        :      2.07s CPU      4.51s WALL


   This run was terminated on:  13:59:52   3Dec2023            

=------------------------------------------------------------------------------=
   JOB DONE.
=------------------------------------------------------------------------------=
